<?xml version="1.0" ?>
<VTKFile byte_order="LittleEndian" type="UnstructuredGrid" version="0.1">
<UnstructuredGrid>
<Piece NumberOfCells="0" NumberOfPoints="32">
<Points>
<DataArray NumberOfComponents="3" format="ascii" type="Float32">2.5103477851911067 3.7978336412120388 2 6.2970643585628503 1.4000000000000004 2 15.408142892674393 1.4000000000000004 2 18.299304793346099 1.4000000000000004 2 19.818465478022773 1.4000000000000004 2 38.201137509441807 2.8905562437599528 2 38.69873822964432 1.4000000000000004 2 41.373522272147078 3.1155396204883758 2 48.556005611365457 3.2293549041243352 2 50.566089297243153 1.4000000000000004 2 51.744003111125636 3.8467479743758699 2 65.050228535853563 2.7820912782760279 2 74.354052656451358 2.526181655766913 2 77.869050034771462 1.4000000000000004 2 79.206407618899206 1.4000000000000004 2 91.030913131383699 1.4000000000000004 2 2.8515426687077063 1.4000000000000004 2 4.6175018391094342 1.4000000000000004 2 16.810564745017089 1.4000000000000004 2 18.076100884572835 3.1631097975002032 2 21.450793761230308 1.4000000000000004 2 36.944694677640548 1.4000000000000004 2 39.841859170717214 3.8008278595483511 2 40.286945569254506 1.4000000000000004 2 47.725234418610519 1.4000000000000004 2 49.141539894045472 1.4000000000000004 2 51.83772510638439 1.4000000000000004 2 65.983536326516415 1.4000000000000004 2 75.062339708223575 1.4000000000000004 2 78.028951929633152 3.3760349737873532 2 79.479190397728914 2.9545559509505841 2 91.117892877815322 2.8448522185997658 2 </DataArray>
</Points>
<Cells>
<DataArray Name="connectivity" format="ascii" type="Int32">0</DataArray>
<DataArray Name="offsets" format="ascii" type="Int32">0</DataArray>
<DataArray Name="types" format="ascii" type="UInt8">1</DataArray>
</Cells>
<PointData>
<DataArray Name="Points" NumberOfComponents="3" format="ascii" type="Float32">2.5103477851911067 3.7978336412120388 2 6.2970643585628503 1.4000000000000004 2 15.408142892674393 1.4000000000000004 2 18.299304793346099 1.4000000000000004 2 19.818465478022773 1.4000000000000004 2 38.201137509441807 2.8905562437599528 2 38.69873822964432 1.4000000000000004 2 41.373522272147078 3.1155396204883758 2 48.556005611365457 3.2293549041243352 2 50.566089297243153 1.4000000000000004 2 51.744003111125636 3.8467479743758699 2 65.050228535853563 2.7820912782760279 2 74.354052656451358 2.526181655766913 2 77.869050034771462 1.4000000000000004 2 79.206407618899206 1.4000000000000004 2 91.030913131383699 1.4000000000000004 2 2.8515426687077063 1.4000000000000004 2 4.6175018391094342 1.4000000000000004 2 16.810564745017089 1.4000000000000004 2 18.076100884572835 3.1631097975002032 2 21.450793761230308 1.4000000000000004 2 36.944694677640548 1.4000000000000004 2 39.841859170717214 3.8008278595483511 2 40.286945569254506 1.4000000000000004 2 47.725234418610519 1.4000000000000004 2 49.141539894045472 1.4000000000000004 2 51.83772510638439 1.4000000000000004 2 65.983536326516415 1.4000000000000004 2 75.062339708223575 1.4000000000000004 2 78.028951929633152 3.3760349737873532 2 79.479190397728914 2.9545559509505841 2 91.117892877815322 2.8448522185997658 2 </DataArray>
<DataArray Name="forces" NumberOfComponents="3" format="ascii" type="Float32">-0.57647311556526604 0.25458291259332577 0.0 -0.39209162890350491 -0.76483290623270128 0.0 0.24753274470391723 -1.7579890894653265 0.0 -0.065709893227796412 -1.919480042050576 0.0 -0.25525451314334296 -2.4178549937831186 0.0 0.35030322226696731 0.077994296670796243 0.0 0.16378566865362232 -1.2861260279110691 0.0 -0.18018919906031783 0.40755231493205446 0.0 0.035189552606575192 0.14138735123113799 0.0 -0.36206109327070224 -1.3813507014550301 0.0 -0.29477836584241157 0.099648046194889983 0.0 -0.050389625633700197 0.21591288059753272 0.0 0.31131450399680477 0.06097267329737921 0.0 -0.14911940394022011 -2.0585042821376631 0.0 -0.19028396988175 -2.0031502659671747 0.0 -0.11950898795132325 -2.8857849442730679 0.0 -0.050607737327721836 -0.26591077059435764 0.0 -0.18119454768136817 -0.76409012327071646 0.0 0.13978365860260331 -1.9194546623332867 0.0 -0.16844025054232303 0.089143606383883273 0.0 -0.34662728553627176 -2.3870743457394905 0.0 0.43569829964445511 -1.3231991110815546 0.0 -0.022785977318895978 0.091501959217378692 0.0 -0.037171638702963694 -1.1346435577355158 0.0 0.18769066319134031 -1.8447167364386912 0.0 -0.11327218657071628 -1.5777232055855517 0.0 -0.38946549881176118 -1.6787787992686378 0.0 0.069625243319051511 -2.3563322881784452 0.0 0.10280386445698284 -2.1231229864195234 0.0 -0.022413799324673578 0.15198796034355821 0.0 -0.2063997587609479 0.17868877733612998 0.0 -0.16341085027730529 0.23390824446652292 0.0 </DataArray>
<DataArray Name="radii" format="ascii" type="Float32">1.4000000000000004 1.4000000000000004 1.4000000000000004 1.4000000000000004 1.4000000000000004 1.4000000000000004 1.4000000000000004 1.4000000000000004 1.4000000000000004 1.4000000000000004 1.4000000000000004 1.4000000000000004 1.4000000000000004 1.4000000000000004 1.4000000000000004 1.4000000000000004 1.4000000000000004 1.4000000000000004 1.4000000000000004 1.4000000000000004 1.4000000000000004 1.4000000000000004 1.4000000000000004 1.4000000000000004 1.4000000000000004 1.4000000000000004 1.4000000000000004 1.4000000000000004 1.4000000000000004 1.4000000000000004 1.4000000000000004 1.4000000000000004 </DataArray>
</PointData>
<CellData/>
</Piece>
</UnstructuredGrid>
</VTKFile>
