<?xml version="1.0" ?>
<VTKFile byte_order="LittleEndian" type="UnstructuredGrid" version="0.1">
<UnstructuredGrid>
<Piece NumberOfCells="0" NumberOfPoints="32">
<Points>
<DataArray NumberOfComponents="3" format="ascii" type="Float32">3.600768450447974 3.4180248954798169 2 6.6022290779573494 1.2500000000000002 2 15.37545253854241 1.2500000000000002 2 18.269981732860298 1.2500000000000002 2 19.913054832246821 1.2500000000000002 2 37.887346684929561 2.7037543092484659 2 38.401051768604638 1.2500000000000002 2 41.39190044975053 2.3259818911095267 2 48.809756274964926 2.8157529975045126 2 51.034004335361814 1.4630525778585595 2 52.079729335390851 3.7233680215090068 2 65.390435014765529 2.5116955268818226 2 74.166491852043478 2.3946458147183014 2 78.047686577170296 1.2500000000000002 2 79.488955653035418 1.2500000000000002 2 90.930526120914664 1.2500000000000002 2 2.9900515588662873 1.2500000000000002 2 4.8191852417547638 1.2500000000000002 2 16.864279038944762 1.3246371699142694 2 18.61520753730456 3.0437479168167854 2 21.775219727194894 1.2500000000000002 2 36.367645460522652 1.2500000000000002 2 39.72736471156658 3.463811804771499 2 40.236300087113378 1.2500000000000002 2 47.705458799656292 1.2500000000000002 2 49.546241694164607 1.2500000000000002 2 52.270305228407075 1.2500000000000002 2 66.102069397024209 1.2500000000000002 2 75.245044051188231 1.2500000000000002 2 78.212424233577053 3.3072629774628779 2 79.572074170956896 2.9484361874660787 2 91.291666895383571 2.847901943556963 2 </DataArray>
</Points>
<Cells>
<DataArray Name="connectivity" format="ascii" type="Int32">0</DataArray>
<DataArray Name="offsets" format="ascii" type="Int32">0</DataArray>
<DataArray Name="types" format="ascii" type="UInt8">1</DataArray>
</Cells>
<PointData>
<DataArray Name="Points" NumberOfComponents="3" format="ascii" type="Float32">3.600768450447974 3.4180248954798169 2 6.6022290779573494 1.2500000000000002 2 15.37545253854241 1.2500000000000002 2 18.269981732860298 1.2500000000000002 2 19.913054832246821 1.2500000000000002 2 37.887346684929561 2.7037543092484659 2 38.401051768604638 1.2500000000000002 2 41.39190044975053 2.3259818911095267 2 48.809756274964926 2.8157529975045126 2 51.034004335361814 1.4630525778585595 2 52.079729335390851 3.7233680215090068 2 65.390435014765529 2.5116955268818226 2 74.166491852043478 2.3946458147183014 2 78.047686577170296 1.2500000000000002 2 79.488955653035418 1.2500000000000002 2 90.930526120914664 1.2500000000000002 2 2.9900515588662873 1.2500000000000002 2 4.8191852417547638 1.2500000000000002 2 16.864279038944762 1.3246371699142694 2 18.61520753730456 3.0437479168167854 2 21.775219727194894 1.2500000000000002 2 36.367645460522652 1.2500000000000002 2 39.72736471156658 3.463811804771499 2 40.236300087113378 1.2500000000000002 2 47.705458799656292 1.2500000000000002 2 49.546241694164607 1.2500000000000002 2 52.270305228407075 1.2500000000000002 2 66.102069397024209 1.2500000000000002 2 75.245044051188231 1.2500000000000002 2 78.212424233577053 3.3072629774628779 2 79.572074170956896 2.9484361874660787 2 91.291666895383571 2.847901943556963 2 </DataArray>
<DataArray Name="forces" NumberOfComponents="3" format="ascii" type="Float32">-0.25673625810009765 0.12522695615232357 0.0 -0.22504692120943393 -0.42425890416033818 0.0 0.0051051523066321103 -1.1747289680714692 0.0 0.10956057950557491 -0.73386439551090066 0.0 -0.021708259300207366 -1.1798187608509079 0.0 0.30207632721155725 0.13693621436540715 0.0 0.12154302788645821 -0.9022168995908918 0.0 -0.17053491117633046 0.24265089767614487 0.0 -0.048244588277451372 0.10233161143960745 0.0 -0.078572346270638707 -0.25209150642202011 0.0 -0.28452843533732786 0.085967147384642284 0.0 0.18468213093598312 0.071645973637696952 0.0 0.21986655978256853 0.070062180032384958 0.0 -0.053634209328656715 -0.94543938516187254 0.0 -0.11877416711224692 -1.1221466490874323 0.0 -0.030077826031954524 -1.8936667594691798 0.0 -0.079540615805797632 -0.2204590939935259 0.0 -0.17072840150344826 -0.29930606666940313 0.0 0.032269820678184125 -0.51380349970737282 0.0 -0.15443872534594161 0.025431040056577876 0.0 -0.1496068020946274 -1.2547026751624384 0.0 0.31482578601679179 -1.3092522343381252 0.0 0.069299956761503995 0.27047886695502688 0.0 0.036745693421362809 -0.85262615107199036 0.0 -0.064687049200752855 -1.2460019300209741 0.0 -0.11532408206387 -1.1674275414586139 0.0 -0.10365696433436322 -1.0329184570376708 0.0 0.03677391303232061 -1.8721361931329434 0.0 0.084787589054822338 -1.1759372343508394 0.0 -0.10101930709991758 0.042254031373467033 0.0 -0.29695533390408779 0.13630859912700072 0.0 -0.051846365725423449 0.069887512942502256 0.0 </DataArray>
<DataArray Name="radii" format="ascii" type="Float32">1.2500000000000002 1.2500000000000002 1.2500000000000002 1.2500000000000002 1.2500000000000002 1.2500000000000002 1.2500000000000002 1.2500000000000002 1.2500000000000002 1.2500000000000002 1.2500000000000002 1.2500000000000002 1.2500000000000002 1.2500000000000002 1.2500000000000002 1.2500000000000002 1.2500000000000002 1.2500000000000002 1.2500000000000002 1.2500000000000002 1.2500000000000002 1.2500000000000002 1.2500000000000002 1.2500000000000002 1.2500000000000002 1.2500000000000002 1.2500000000000002 1.2500000000000002 1.2500000000000002 1.2500000000000002 1.2500000000000002 1.2500000000000002 </DataArray>
</PointData>
<CellData/>
</Piece>
</UnstructuredGrid>
</VTKFile>
