<?xml version="1.0" ?>
<VTKFile byte_order="LittleEndian" type="UnstructuredGrid" version="0.1">
<UnstructuredGrid>
<Piece NumberOfCells="0" NumberOfPoints="19">
<Points>
<DataArray NumberOfComponents="3" format="ascii" type="Float32">0 0 0 11.988491554811976 1.4 2 18.03718592893399 2.8358660781699432 2 23.218547043440573 2.9732317629317864 2 25.382546225715199 1.4 2 28.005636962691543 1.4 2 32.89299170299762 2.8009737152877219 2 36.305857907861238 2.6272717990063952 2 45.946811390411753 1.4 2 48.265516624212111 2.8111627447614853 2 55.341070004893552 3.2005604469910569 2 62.716424813120497 1.4 2 67.487615059799921 2.2384746694031818 2 70.081719834686751 1.8583569161901519 2 73.830032380780509 2.8389087812370852 2 76.068695378391624 1.4 2 83.32175767054369 1.4 2 93.837285409748176 2.5490105288179032 2 96.120881343641173 1.4 2 </DataArray>
</Points>
<Cells>
<DataArray Name="connectivity" format="ascii" type="Int32">0</DataArray>
<DataArray Name="offsets" format="ascii" type="Int32">0</DataArray>
<DataArray Name="types" format="ascii" type="UInt8">1</DataArray>
</Cells>
<PointData>
<DataArray Name="Points" NumberOfComponents="3" format="ascii" type="Float32">0 0 0 11.988491554811976 1.4 2 18.03718592893399 2.8358660781699432 2 23.218547043440573 2.9732317629317864 2 25.382546225715199 1.4 2 28.005636962691543 1.4 2 32.89299170299762 2.8009737152877219 2 36.305857907861238 2.6272717990063952 2 45.946811390411753 1.4 2 48.265516624212111 2.8111627447614853 2 55.341070004893552 3.2005604469910569 2 62.716424813120497 1.4 2 67.487615059799921 2.2384746694031818 2 70.081719834686751 1.8583569161901519 2 73.830032380780509 2.8389087812370852 2 76.068695378391624 1.4 2 83.32175767054369 1.4 2 93.837285409748176 2.5490105288179032 2 96.120881343641173 1.4 2 </DataArray>
<DataArray Name="forces" NumberOfComponents="3" format="ascii" type="Float32">0 0 0 0.018961250971837568 -0.088327762435763402 0.0 0.0099537133816189373 0.071728734019566615 0.0 -0.068509907021245459 0.13641799122276424 0.0 -0.08388715310088804 -0.081943372665922998 0.0 -0.0047796006565725691 0.0 0.0 0.075784908874338947 0.1285113407066539 0.0 0.016748194508830676 0.046951185601297393 0.0 0.0078500289825494812 -0.090197056234126272 0.0 -0.0028136470318415735 0.14235628581485144 0.0 -0.038564469372028752 0.13883632944585106 0.0 0.082308343241802834 -0.064873527602750086 0.0 -0.080369116725037576 0.091650722118828409 0.0 -0.0071115921155485429 0.043295747213932596 0.0 -0.010288954854684257 0.21744040183063845 0.0 -0.048853379637627842 -0.059688073340443272 0.0 -0.091864280462771522 -0.070810606349191646 0.0 -0.11576772377416411 0.21226444635795055 0.0 -0.10685192321575121 -0.1170261907078355 0.0 </DataArray>
<DataArray Name="radii" format="ascii" type="Float32">0 1.4 1.2 1.4 1.4 1.4 1.4 1.2 1.4 1.4 1.4 1.4 1.4 1.4 1.4 1.4 1.4 1.4 1.4 </DataArray>
</PointData>
<CellData/>
</Piece>
</UnstructuredGrid>
</VTKFile>
