<?xml version="1.0" ?>
<VTKFile byte_order="LittleEndian" type="UnstructuredGrid" version="0.1">
<UnstructuredGrid>
<Piece NumberOfCells="0" NumberOfPoints="16">
<Points>
<DataArray NumberOfComponents="3" format="ascii" type="Float32">3.3751041706246352 1.1 2 7.3299934431641773 1.1 2 16.602175444208747 1.1 2 19.496638353534014 1.1 2 21.653096237354607 1.1 2 34.63916785556534 1.1 2 37.998736253860784 1.1 2 41.396937236084959 1.1 2 49.933524637696046 1.1 2 52.01484878086498 1.1 2 54.112660370453 1.1 2 65.395322095652901 1.1 2 72.261738931780314 1.1 2 78.387731175569897 1.1 2 80.46472388822356 1.1 2 91.968909443558317 1.1 2 </DataArray>
</Points>
<Cells>
<DataArray Name="connectivity" format="ascii" type="Int32">0</DataArray>
<DataArray Name="offsets" format="ascii" type="Int32">0</DataArray>
<DataArray Name="types" format="ascii" type="UInt8">1</DataArray>
</Cells>
<PointData>
<DataArray Name="Points" NumberOfComponents="3" format="ascii" type="Float32">3.3751041706246352 1.1 2 7.3299934431641773 1.1 2 16.602175444208747 1.1 2 19.496638353534014 1.1 2 21.653096237354607 1.1 2 34.63916785556534 1.1 2 37.998736253860784 1.1 2 41.396937236084959 1.1 2 49.933524637696046 1.1 2 52.01484878086498 1.1 2 54.112660370453 1.1 2 65.395322095652901 1.1 2 72.261738931780314 1.1 2 78.387731175569897 1.1 2 80.46472388822356 1.1 2 91.968909443558317 1.1 2 </DataArray>
<DataArray Name="forces" NumberOfComponents="3" format="ascii" type="Float32">0.012462508261893435 -0.056424091876302103 0.0 -0.015338893444102927 -0.12294242861659013 0.0 0.047570138509602712 -0.088900899545695133 0.0 -0.027791067965907326 -0.029700060197761769 0.0 0.0061819753743018804 -0.054474618556841249 0.0 0.019102457526621354 -0.081823195069279653 0.0 -0.001561923105417716 -0.032192880289230966 0.0 -0.028658086066279238 -0.08489782483054048 0.0 -0.046353530720237512 -0.090348437797903747 0.0 0.018168869868127047 0.0 0.0 0.076784468716177695 -0.068894661736328272 0.0 -0.10245067636620435 -0.1044947199554327 0.0 0.079333342369803855 -0.20505445612738954 0.0 0.042045853918730863 -0.024296158743959413 0.0 0.11463624935122936 -0.0636565612954888 0.0 -0.07211021273438506 -0.18156671112508313 0.0 </DataArray>
<DataArray Name="radii" format="ascii" type="Float32">1.1 1.1 1.1 1.1 1.1 1.1 1.1 1.1 1.1 1.1 1.1 1.1 1.1 1.1 1.1 1.1 </DataArray>
</PointData>
<CellData/>
</Piece>
</UnstructuredGrid>
</VTKFile>
