<?xml version="1.0" ?>
<VTKFile byte_order="LittleEndian" type="UnstructuredGrid" version="0.1">
<UnstructuredGrid>
<Piece NumberOfCells="0" NumberOfPoints="16">
<Points>
<DataArray NumberOfComponents="3" format="ascii" type="Float32">3.7275510635035487 1.4500000000000004 2 6.5083157655212478 1.4500000000000004 2 15.899099279599762 1.4500000000000004 2 18.590939892818938 1.4500000000000004 2 21.2640870940381 1.4500000000000004 2 36.029369901548918 1.4500000000000004 2 38.715880841132318 1.4500000000000004 2 41.428189500780825 1.4500000000000004 2 48.171760074931484 1.4500000000000004 2 50.798876495198762 1.4500000000000004 2 53.288224946034603 2.0713494384587903 2 64.770747827736344 1.4500000000000004 2 73.80539258589198 1.4500000000000004 2 77.936386259656288 1.7241593415725098 2 80.463941824326611 1.4500000000000004 2 91.549167343936034 1.4500000000000004 2 </DataArray>
</Points>
<Cells>
<DataArray Name="connectivity" format="ascii" type="Int32">0</DataArray>
<DataArray Name="offsets" format="ascii" type="Int32">0</DataArray>
<DataArray Name="types" format="ascii" type="UInt8">1</DataArray>
</Cells>
<PointData>
<DataArray Name="Points" NumberOfComponents="3" format="ascii" type="Float32">3.7275510635035487 1.4500000000000004 2 6.5083157655212478 1.4500000000000004 2 15.899099279599762 1.4500000000000004 2 18.590939892818938 1.4500000000000004 2 21.2640870940381 1.4500000000000004 2 36.029369901548918 1.4500000000000004 2 38.715880841132318 1.4500000000000004 2 41.428189500780825 1.4500000000000004 2 48.171760074931484 1.4500000000000004 2 50.798876495198762 1.4500000000000004 2 53.288224946034603 2.0713494384587903 2 64.770747827736344 1.4500000000000004 2 73.80539258589198 1.4500000000000004 2 77.936386259656288 1.7241593415725098 2 80.463941824326611 1.4500000000000004 2 91.549167343936034 1.4500000000000004 2 </DataArray>
<DataArray Name="forces" NumberOfComponents="3" format="ascii" type="Float32">-0.011198110190802121 0.010604144667036169 0.0 -0.014756687983210726 -0.14103935645842483 0.0 -0.024896915196494618 -0.075808227641401313 0.0 -0.022073916967578266 -0.011205209561311675 0.0 -0.0050773789537198744 -0.24731481677295156 0.0 0.0074849573609762632 0.0065560167552369299 0.0 0.017861611646354525 -0.03602132722399129 0.0 0.0089009231768354402 -0.012157870618050409 0.0 -0.035040081914979121 -0.069354085093017367 0.0 -0.033784042675323755 -0.1096173207471681 0.0 -0.064569887146124272 0.10623243178356574 0.0 0.0042324836438275559 -0.33311020410840442 0.0 0.027069363656492419 -0.080654147042479654 0.0 0.020767681883551881 0.048519461988286348 0.0 0.0062660849085813992 -0.24269948266392063 0.0 -0.03130321353954385 -0.50400615291222683 0.0 </DataArray>
<DataArray Name="radii" format="ascii" type="Float32">1.4500000000000004 1.4500000000000004 1.4500000000000004 1.4500000000000004 1.4500000000000004 1.4500000000000004 1.4500000000000004 1.4500000000000004 1.4500000000000004 1.4500000000000004 1.4500000000000004 1.4500000000000004 1.4500000000000004 1.4500000000000004 1.4500000000000004 1.4500000000000004 </DataArray>
</PointData>
<CellData/>
</Piece>
</UnstructuredGrid>
</VTKFile>
