<?xml version="1.0" ?>
<VTKFile byte_order="LittleEndian" type="UnstructuredGrid" version="0.1">
<UnstructuredGrid>
<Piece NumberOfCells="0" NumberOfPoints="87">
<Points>
<DataArray NumberOfComponents="3" format="ascii" type="Float32">1.2 1.2 2 5.4045703648544059 4.8519966304035114 2 6.2313404006062676 2.9367712497037122 2 16.470959456855589 3.8746519604324905 2 30.442870192161276 3.1272404202293975 2 39.725676226013384 5.4156620325539766 2 42.098671337642244 3.913014293280753 2 55.981981028890601 6.9399299540184787 2 62.422060759359709 4.6141981545398263 2 64.340697660199254 4.0946255954718174 2 78.073091013462914 5.0742996075047087 2 86.579623269604639 1.2 2 89.537778144912266 1.8096881583224445 2 88.418509247506591 11.169396724919553 2 97.353813097021643 6.6390133676069922 2 7.8891989350327245 6.0678384082115269 2 12.702368423279927 8.0725119892283388 2 31.67920703109554 7.3308891517152031 2 41.626758319716529 5.6577114903664807 2 55.85263243925867 2.6445546085750302 2 59.010999305344974 2.4333318613380244 2 64.514735889145143 10.704700556887833 2 83.666055344187924 9.5255416875887828 2 84.697582750463965 1.2 2 87.891216583471845 7.0147767059449233 2 89.856061781937768 6.7961236008283628 2 98.8 1.2 2 16.99473632550508 8.2268323911916976 2 31.590019704231345 1.2 2 57.289773524420504 5.5360702717204608 2 58.146664283940389 7.7775575249054016 2 66.494731921949963 3.2409800152078163 2 87.510904253940126 4.0130090479644309 2 90.566267988044643 4.6769969110066398 2 88.146904228140002 8.9739277049909294 2 96.853792739778413 4.8547377015114401 2 10.504066616960822 8.6239100997433393 2 10.597795218206796 4.5122463755496289 2 33.888903589697598 6.7697999707002552 2 54.458338936333433 1.2 2 58.768650222397241 4.1110663897040753 2 64.452398517427852 7.66338058374141 2 79.715797004367658 8.3758280139344539 2 85.630736387480269 4.2149896648048815 2 85.22816305326694 6.5545577825065129 2 92.353524375084191 4.1934043973140982 2 98.8 5.1456920924699352 2 18.009755104222045 5.2247050166558022 2 29.474579286782244 6.5915082152624587 2 56.336374379459919 9.1000077844885965 2 60.970354692076086 6.0041939496412509 2 63.010905775405035 2.8253808857843481 2 85.556394063412185 2.6714747199366773 2 88.372725875755293 1.2 2 90.688464071563445 11.189154343152047 2 98.8 7.3206109721287103 2 7.9743002674131205 3.9014812811202773 2 14.747566704096924 7.4372903425655972 2 30.811204016786466 5.0829457740565189 2 56.3846475853288 1.2 2 58.031873862949908 1.2 2 67.106649008166329 10.779198380350993 2 83.52428848999088 7.4362019570716305 2 83.633536578133516 2.9413605434283405 2 88.775643003726088 5.1019943433039474 2 91.737528228587465 6.0430370095551007 2 97.737228625379529 2.4128789950148009 2 16.334288778828455 6.1103934303916958 2 29.739712223555649 1.2 2 57.095058594881714 3.5367491318561775 2 59.256918102388411 6.1335110509997008 2 66.007173945049701 4.9878070490122148 2 87.53460540175405 2.7050891575132994 2 89.585232413340279 3.2806829373781148 2 90.103960464176097 9.0212604039705351 2 96.639613882462385 3.3866047390636265 2 10.0620678270082 6.4899144226558532 2 12.291347287632505 5.9928110136497592 2 32.474491268158154 5.376123771753849 2 53.810272904345403 2.7703820055843598 2 60.447506193968863 4.1961204307841093 2 64.216868833146023 5.8641540905429306 2 81.385334946969181 9.7771336295661122 2 86.728315866362578 5.7002137597865845 2 86.089358609985979 8.4948622410060803 2 93.490126339317072 3.0302932202523047 2 98.8 3.4079270969000932 2 </DataArray>
</Points>
<Cells>
<DataArray Name="connectivity" format="ascii" type="Int32">0</DataArray>
<DataArray Name="offsets" format="ascii" type="Int32">0</DataArray>
<DataArray Name="types" format="ascii" type="UInt8">1</DataArray>
</Cells>
<PointData>
<DataArray Name="Points" NumberOfComponents="3" format="ascii" type="Float32">1.2 1.2 2 5.4045703648544059 4.8519966304035114 2 6.2313404006062676 2.9367712497037122 2 16.470959456855589 3.8746519604324905 2 30.442870192161276 3.1272404202293975 2 39.725676226013384 5.4156620325539766 2 42.098671337642244 3.913014293280753 2 55.981981028890601 6.9399299540184787 2 62.422060759359709 4.6141981545398263 2 64.340697660199254 4.0946255954718174 2 78.073091013462914 5.0742996075047087 2 86.579623269604639 1.2 2 89.537778144912266 1.8096881583224445 2 88.418509247506591 11.169396724919553 2 97.353813097021643 6.6390133676069922 2 7.8891989350327245 6.0678384082115269 2 12.702368423279927 8.0725119892283388 2 31.67920703109554 7.3308891517152031 2 41.626758319716529 5.6577114903664807 2 55.85263243925867 2.6445546085750302 2 59.010999305344974 2.4333318613380244 2 64.514735889145143 10.704700556887833 2 83.666055344187924 9.5255416875887828 2 84.697582750463965 1.2 2 87.891216583471845 7.0147767059449233 2 89.856061781937768 6.7961236008283628 2 98.8 1.2 2 16.99473632550508 8.2268323911916976 2 31.590019704231345 1.2 2 57.289773524420504 5.5360702717204608 2 58.146664283940389 7.7775575249054016 2 66.494731921949963 3.2409800152078163 2 87.510904253940126 4.0130090479644309 2 90.566267988044643 4.6769969110066398 2 88.146904228140002 8.9739277049909294 2 96.853792739778413 4.8547377015114401 2 10.504066616960822 8.6239100997433393 2 10.597795218206796 4.5122463755496289 2 33.888903589697598 6.7697999707002552 2 54.458338936333433 1.2 2 58.768650222397241 4.1110663897040753 2 64.452398517427852 7.66338058374141 2 79.715797004367658 8.3758280139344539 2 85.630736387480269 4.2149896648048815 2 85.22816305326694 6.5545577825065129 2 92.353524375084191 4.1934043973140982 2 98.8 5.1456920924699352 2 18.009755104222045 5.2247050166558022 2 29.474579286782244 6.5915082152624587 2 56.336374379459919 9.1000077844885965 2 60.970354692076086 6.0041939496412509 2 63.010905775405035 2.8253808857843481 2 85.556394063412185 2.6714747199366773 2 88.372725875755293 1.2 2 90.688464071563445 11.189154343152047 2 98.8 7.3206109721287103 2 7.9743002674131205 3.9014812811202773 2 14.747566704096924 7.4372903425655972 2 30.811204016786466 5.0829457740565189 2 56.3846475853288 1.2 2 58.031873862949908 1.2 2 67.106649008166329 10.779198380350993 2 83.52428848999088 7.4362019570716305 2 83.633536578133516 2.9413605434283405 2 88.775643003726088 5.1019943433039474 2 91.737528228587465 6.0430370095551007 2 97.737228625379529 2.4128789950148009 2 16.334288778828455 6.1103934303916958 2 29.739712223555649 1.2 2 57.095058594881714 3.5367491318561775 2 59.256918102388411 6.1335110509997008 2 66.007173945049701 4.9878070490122148 2 87.53460540175405 2.7050891575132994 2 89.585232413340279 3.2806829373781148 2 90.103960464176097 9.0212604039705351 2 96.639613882462385 3.3866047390636265 2 10.0620678270082 6.4899144226558532 2 12.291347287632505 5.9928110136497592 2 32.474491268158154 5.376123771753849 2 53.810272904345403 2.7703820055843598 2 60.447506193968863 4.1961204307841093 2 64.216868833146023 5.8641540905429306 2 81.385334946969181 9.7771336295661122 2 86.728315866362578 5.7002137597865845 2 86.089358609985979 8.4948622410060803 2 93.490126339317072 3.0302932202523047 2 98.8 3.4079270969000932 2 </DataArray>
<DataArray Name="forces" NumberOfComponents="3" format="ascii" type="Float32">-0.42048541868577211 0.010900603971949373 0.0 -0.0064848401280074089 0.14907968763946317 0.0 -0.22620027617714408 0.0032970227981608119 0.0 -0.024621312279989122 0.12645237363906914 0.0 0.027214465151566988 0.0001189452796231949 0.0 0.025629193941635663 0.13168844733126522 0.0 -0.10196620705356835 0.11956466035433125 0.0 -0.068998709001011072 0.32745656588532995 0.0 -0.001927638594959008 0.15352404285726606 0.0 0.045051399092333605 0.05994808226220294 0.0 0.045470682974100729 -0.047711140192621126 0.0 -0.07524545673965144 -1.0311550615656215 0.0 0.064808187396768746 -0.092499210827710621 0.0 -0.113430138557559 0.17479802857223486 0.0 -0.18144723590732389 0.29106119282705445 0.0 -0.20477642315772887 0.20442993640874388 0.0 -0.067332788223573886 0.3293791347687926 0.0 0.033419217455908548 0.11998581725110985 0.0 -0.0013349319281140762 0.16187579266253349 0.0 -0.15724791138490962 0.1184100570528018 0.0 -0.010610726012266591 0.192471161605763 0.0 -0.13114673102240679 0.29135924373072936 0.0 0.12641557623419963 0.30386018101375684 0.0 0.0028888738817440252 -0.922293105313719 0.0 -0.12371435645724053 0.34029072372071512 0.0 -0.012153965945313067 0.28702385171013345 0.0 1.024546897750696 -0.80164167770119965 0.0 -0.011663855274797866 0.22397511924068073 0.0 0.024934347173763749 -0.36392658969052138 0.0 -0.21468763852924524 0.18627398351934937 0.0 -0.029011865802051978 0.29204007417227956 0.0 0.084277527300806621 -0.015753675059411609 0.0 -0.0035915697307917493 0.15587819581465473 0.0 -0.010551485074006495 0.16220655716650856 0.0 -0.13390801375754019 0.29660733627994684 0.0 0.12884545234307967 0.16353346585706219 0.0 -0.082844234856461155 0.25507333956450123 0.0 -0.005301437236807538 0.17343638103394363 0.0 0.057800774861013149 0.21756907962738559 0.0 -0.024797330257845251 -0.92666781506172247 0.0 -0.044092218327131505 0.31738879623615529 0.0 -0.10049069715451124 0.24459660862666516 0.0 -0.22780182131243118 0.352927674368887 0.0 -0.014309341982586155 0.17479371765887508 0.0 -0.11619129688151371 0.14218647833011211 0.0 0.014009858379023132 0.090739990727233599 0.0 0.64826948612861957 0.28002036651950846 0.0 0.039009450248279287 0.058086726673671291 0.0 0.056858090393309933 0.31512665630301773 0.0 -0.09851513466046416 0.30242468577751569 0.0 -0.05810696583331687 0.20299993815987127 0.0 -0.0060461508956294874 0.062421129933882991 0.0 -0.034793999654751884 0.1659372486374395 0.0 -0.056729907368397114 -1.1060587174521168 0.0 -0.064731932211780585 0.35313063713213733 0.0 0.89167625786755056 0.12328510839945911 0.0 -0.16345795961868126 0.092893107041947948 0.0 -0.015406466615268538 0.22016341064668993 0.0 -0.0047329954771435645 0.062374593175690871 0.0 0.0183395421258985 -0.8238544197515959 0.0 0.042437949688619248 -0.64916405420456325 0.0 0.11844208950416599 0.18128813397158705 0.0 -0.16253948943505345 0.20654752998771808 0.0 -0.010343004780863363 0.12874045114928917 0.0 0.014594565063667214 0.31250496082721191 0.0 -0.027635756122259332 0.19581344698739922 0.0 0.0098122916469582933 0.09243230838011407 0.0 0.056622435138818178 0.17616102464751043 0.0 -0.062385896411719322 -0.65296690352245967 0.0 0.060290374511593914 -0.04710081385245099 0.0 -0.12450450898829175 0.19794753043058405 0.0 0.097396786050445439 0.038428200117266137 0.0 -0.0038291508843444899 0.04240540163755678 0.0 -0.12550893747004954 0.097672726513863398 0.0 0.019151143799846559 0.26931263801734845 0.0 -0.037898942028495974 0.087587442179751285 0.0 -0.066919785104173624 0.18593505083520578 0.0 0.059571920951948076 0.1985492016244261 0.0 0.024126734508095327 0.060145347913795444 0.0 -0.041273948423811518 0.16644831927986029 0.0 -0.0050288480045662803 0.16716461367172414 0.0 0.016014533240012119 0.10557620555560082 0.0 0.064840742505865925 0.16325231188045897 0.0 0.0031631939808819398 0.19442962964228561 0.0 -0.22788138967770893 0.23333591651049063 0.0 -0.0047221965347503669 0.020960986256206876 0.0 0.93951291537592407 0.18289886297362712 0.0 </DataArray>
<DataArray Name="radii" format="ascii" type="Float32">1.2 1.2 1 1.2 1.2 1.2 1 1.2 1.2 1.2 1 1.2 1.2 1.2 1.2 1.2 1.2 1.2 1 1.2 1.2 1.2 1.2 1.2 1.2 1.2 1.2 1.2 1.2 1.2 1.2 1.2 1.2 1.2 1.2 1.2 1.2 1.2 1.2 1.2 1.2 1.2 1.2 1.2 1.2 1.2 1.2 1.2 1.2 1.2 1.2 1.2 1.2 1.2 1.2 1.2 1.2 1.2 1.2 1.2 1.2 1.2 1.2 1.2 1.2 1.2 1.2 1.2 1.2 1.2 1.2 1.2 1.2 1.2 1.2 1.2 1.2 1.2 1.2 1.2 1.2 1.2 1.2 1.2 1.2 1.2 1.2 </DataArray>
</PointData>
<CellData/>
</Piece>
</UnstructuredGrid>
</VTKFile>
