<?xml version="1.0" ?>
<VTKFile byte_order="LittleEndian" type="UnstructuredGrid" version="0.1">
<UnstructuredGrid>
<Piece NumberOfCells="0" NumberOfPoints="16">
<Points>
<DataArray NumberOfComponents="3" format="ascii" type="Float32">12.800608308615404 5.2251426002766701 2 23.919027404686819 1.8591687971126052 2 45.689963798001664 3.2505016955420758 2 75.177428704974091 1.2 2 11.461521583463144 3.2437991837877664 2 22.090124717865908 3.4080361438371534 2 43.326478333286587 3.2414844810062964 2 78.096262194007778 5.3976491755522895 2 16.048877522289462 3.7252096105145203 2 26.144352535776751 1.2 2 44.488768041554763 5.2827442915048923 2 77.479440184462575 1.2 2 12.609352360512599 1.2 2 23.935445793787864 4.7937983653903506 2 44.567394175105228 1.2 2 76.347201818715135 3.2495604136132834 2 </DataArray>
</Points>
<Cells>
<DataArray Name="connectivity" format="ascii" type="Int32">0</DataArray>
<DataArray Name="offsets" format="ascii" type="Int32">0</DataArray>
<DataArray Name="types" format="ascii" type="UInt8">1</DataArray>
</Cells>
<PointData>
<DataArray Name="Points" NumberOfComponents="3" format="ascii" type="Float32">12.800608308615404 5.2251426002766701 2 23.919027404686819 1.8591687971126052 2 45.689963798001664 3.2505016955420758 2 75.177428704974091 1.2 2 11.461521583463144 3.2437991837877664 2 22.090124717865908 3.4080361438371534 2 43.326478333286587 3.2414844810062964 2 78.096262194007778 5.3976491755522895 2 16.048877522289462 3.7252096105145203 2 26.144352535776751 1.2 2 44.488768041554763 5.2827442915048923 2 77.479440184462575 1.2 2 12.609352360512599 1.2 2 23.935445793787864 4.7937983653903506 2 44.567394175105228 1.2 2 76.347201818715135 3.2495604136132834 2 </DataArray>
<DataArray Name="forces" NumberOfComponents="3" format="ascii" type="Float32">-0.040167034125108352 0.096833172087125829 0.0 0.014491381516121907 0.025173653643913031 0.0 -0.0072793730268735854 0.074054644190465327 0.0 -0.01755668154105601 -0.085748245238937454 0.0 -0.017805622471661103 0.089161001005985174 0.0 0.017780090132213239 0.070391029421147527 0.0 -0.011609393389916076 0.08849681089418833 0.0 -0.024670998713363274 0.098395024691238425 0.0 0.0076645427346758166 0.046570748926256733 0.0 0.053816902048597223 -0.19976240322554109 0.0 0.0054065930679503237 0.077107756207465461 0.0 -0.012307922389216502 -0.14308434740708834 0.0 -0.011950635486549455 -0.13813647655981132 0.0 -0.036276852468552181 0.1416720991685535 0.0 0.016407686075786743 -0.061120336493870206 0.0 -0.011771792886811627 0.089636367906256162 0.0 </DataArray>
<DataArray Name="radii" format="ascii" type="Float32">1.2 1.2 1.2 1.2 1.2 1.2 1.2 1.2 1.2 1.2 1.2 1.2 1.2 1.2 1.2 1.2 </DataArray>
</PointData>
<CellData/>
</Piece>
</UnstructuredGrid>
</VTKFile>
