<?xml version="1.0" ?>
<VTKFile byte_order="LittleEndian" type="UnstructuredGrid" version="0.1">
<UnstructuredGrid>
<Piece NumberOfCells="0" NumberOfPoints="329">
<Points>
<DataArray NumberOfComponents="3" format="ascii" type="Float32">1.2 1.2 2 3.7728140740812308 5.7824127209782912 2 3.9916745301011138 3.1076533892498146 2 16.225721006241283 4.6034898257043455 2 30.203254268508196 4.1736526357207335 2 39.75939855141565 7.695394923040598 2 40.779911649543784 4.9648734663963756 2 55.696776404402222 8.9555036424567653 2 62.590796827534383 6.3891198216051173 2 64.363673193904702 4.6366172321435597 2 77.84462299856871 4.8581973978837993 2 86.111393126138708 1 2 89.113726937182818 2.1998305721746187 2 86.593833276355468 14.033744518041361 2 97.066601385572056 7.8088911191399974 2 6.6305333079744386 8.7305723685237453 2 12.061956589835393 9.2106543956127283 2 32.638494990720936 10.241910609796953 2 41.670474677170425 6.130721662561375 2 55.721487381139951 3.7913972880564866 2 58.599847023038066 3.3887265568445488 2 65.262613765071336 14.137809942857411 2 84.072192396597956 12.62249807732759 2 83.764901424271173 1.0536114213384644 2 88.223244960607985 8.9190287629424958 2 89.28847673314641 8.4150020183234986 2 98.369834673371884 1 2 17.537622778914745 11.317711862382383 2 32.254122625931892 1.3346606589297496 2 56.704493554029987 6.4717935929142065 2 58.075036556151225 9.590614101934964 2 65.737442262980835 3.4180452463996653 2 86.794105651963037 4.814431863151392 2 90.891402959531149 6.1524114964827357 2 87.901181175063115 12.147947298333682 2 95.826347638019044 6.8540605976406148 2 7.8634224122622118 10.002082681014761 2 9.798038585897471 5.1940739927706758 2 35.115347306615007 9.38876764740818 2 54.419035019458889 1.4992170681669899 2 58.566314488731862 4.3775237526898136 2 64.633854859387924 8.6667413873956907 2 79.344875604338142 9.6140051366029304 2 85.452302162223916 5.0142502545906487 2 84.838810620685749 8.8842788769760226 2 92.482274552487553 5.3399345062781043 2 99.0 7.451351221372903 2 17.839028976780931 5.3499389140639328 2 29.90218544037549 8.9428345627310488 2 55.876185357030899 12.386774832485946 2 60.051230845551757 7.1184893196382353 2 63.057962972127889 2.7436002636781902 2 85.611238093138581 3.1093590960227862 2 87.279196937744445 1.1881796831659792 2 89.6437365120468 13.095107505392104 2 98.671209377515481 8.3852195023505445 2 7.0686018071318237 4.6012314372111751 2 15.026119239526695 8.4367929229970553 2 31.508815408312014 6.7620879017136559 2 55.160959970874593 1.2381965059339415 2 56.979008082209617 2.8338879773873296 2 67.977220600108566 14.603313490665691 2 83.512436484693325 10.147263838419773 2 82.219961466456951 3.5407227441385856 2 88.225960600737338 6.3752823552113469 2 90.570319061236106 7.3981935063043327 2 98.955905163610424 2.681072130716585 2 17.206623926742306 8.7433787374854681 2 29.10242082174236 1 2 57.370501408137528 4.6921237300164318 2 57.979672860141555 7.776593822125343 2 65.510335785773549 5.0320717953656953 2 87.026822221821888 3.9616519119780214 2 89.833638035078792 3.2220398127793284 2 89.629870417056964 11.571328575623845 2 96.291450708303998 4.4935203083368869 2 8.7423078936905192 8.245773808272217 2 12.170124893058505 7.4548198111516024 2 32.798690633411766 6.0659297282316489 2 52.579704378895023 2.8721763850630357 2 60.09913212194926 5.1215115020656716 2 63.663556619546164 6.8433614313372884 2 80.726042455791244 13.181693719388692 2 85.376665434595537 6.9398349530510473 2 85.040541939403127 9.9707168082980662 2 93.67613819156378 3.3595172084969738 2 98.825106603272175 3.925292300694962 2 16.962003574387619 2.6612338256180852 2 31.733651235017394 5.1494163998475351 2 54.698046253322318 7.5952841524749646 2 61.256560222547051 4.4132274430640344 2 64.272401451891653 3.7513120900969605 2 86.754297751376967 1.8505017473269769 2 90.134330036814859 1.2611203944998404 2 88.354952951572983 14.653753451919245 2 96.798016680799364 9.2250853134438149 2 5.142018189827029 6.7957076612587244 2 13.715728028678143 10.752536060830126 2 31.060647533604833 8.5886283741827114 2 55.15111570101201 2.7436130646231174 2 57.652924267391583 1 2 62.901016307849979 14.58191382104245 2 82.871369914069817 11.772553003794783 2 85.375493749126406 1 2 86.40260627143175 8.6365434632687901 2 90.033333877361926 9.6273832992042756 2 97.453008038198504 1.2258191399571914 2 15.587328546544189 11.31952385118147 2 31.355052899744798 2.4647957636918445 2 56.728411718875684 8.2472992506543807 2 56.569586686538933 10.791711589967813 2 67.566252874963538 4.5845660752872623 2 86.491816581928248 5.7041800724545029 2 89.849138706747723 4.2849865644848579 2 86.201599345281991 10.250500850120124 2 96.864402512702455 5.6325491406944099 2 10.586000727831124 11.180670628672443 2 8.3158423107880637 5.7271694911841919 2 33.958477126392424 6.8088365656433414 2 52.949165940278561 1 2 57.835224870432171 6.1857246588371151 2 64.941808426839017 9.7589631759499724 2 78.044843464496523 12.975081660113934 2 85.23541178729829 5.7580155433905116 2 83.664234621838773 7.4602921856213964 2 91.133397155612556 4.3685940889248958 2 99.0 6.048060345933064 2 18.632230295409389 5.917523768688131 2 29.665699619595099 6.3962613762901652 2 54.370761907876322 10.668747520101583 2 60.491035309049437 8.0917679558541504 2 63.330544854269448 4.6898025380312642 2 83.568570402970224 3.1481985733883633 2 88.303418278118755 2.1122439153206716 2 90.989897979756037 15.798022302586277 2 98.149045350841192 9.8361272105240847 2 5.8290549191710372 3.6113195145099088 2 13.876880889333476 7.5432424571774872 2 30.77545751868778 5.1475795534420321 2 56.736714234369515 1 2 58.563304183036188 1 2 68.387989563063599 11.864965749485007 2 81.803826490944488 10.137656638136962 2 83.657940405219819 4.2670692983489538 2 89.454134273299218 7.2022289503583732 2 91.855853826871069 6.2289679897441621 2 96.204699410498208 3.4558641615417844 2 17.447962368466918 6.8893737907293415 2 30.683849970922061 1.2101216896001532 2 56.115723678467333 5.3140116431793123 2 59.388848580295324 8.6356536449458812 2 66.364499999666052 6.7911306838892216 2 87.897590638284555 2.9396750708160471 2 87.976539654277701 4.5977618894636052 2 89.211291093491241 9.8802738549188156 2 97.847565496550459 4.37396640072624 2 10.446988392872759 8.2018644030051426 2 10.416434987381876 6.6888119217664803 2 32.491537113572186 7.3268519029451147 2 53.261819054267754 3.6416255923624243 2 60.870348180711559 6.4051672701396036 2 64.523866209661023 6.3811983816696083 2 80.28505234977645 10.608339555953547 2 87.627860837854527 7.0962092342381906 2 85.673217131700227 11.345762468853341 2 92.228489571545751 3.440513969152653 2 99.0 5.2892002077781912 2 17.110883364893969 4.0620080461919752 2 30.277364661707409 2.4786566146384525 2 40.678104606293672 7.0678073042122529 2 55.497295958017681 10.088428942500416 2 62.47309556279879 4.7800182783706546 2 64.747315977225483 5.5044004705266136 2 77.369642334836215 5.7898695061024972 2 85.951985390204456 2.2405005138915293 2 89.459711344542868 1 2 85.611725673146736 12.739674568465839 2 98.515948997893759 6.9126436808352549 2 6.343238664306484 7.3851300872921417 2 12.362020987224081 10.527172485280165 2 33.582812660680084 9.2901115005862671 2 57.577915302894965 3.7724314014280806 2 58.30762131568212 2.1988814408230417 2 64.161651539274928 13.260560451231678 2 84.657550447019148 14.068066660985789 2 84.459429515223945 1 2 87.599496438187913 10.111120835142145 2 88.626580545210302 7.652165324262584 2 97.783001243492151 2.4427319725716248 2 19.16608940840737 11.666930026326543 2 31.459467202990389 1 2 55.364258402101441 7.0309801585528451 2 57.322546615321656 9.1183208136946874 2 66.789561714611153 4.1287726332137851 2 87.413921843306966 5.7771827512991756 2 89.212150332343427 6.0326626346585304 2 88.762203223581949 10.68566289530939 2 95.964093611697493 7.8645529181687541 2 9.2090353990477496 10.59152061138805 2 8.7142568980781405 4.5900412528458396 2 33.955294996741692 8.0941401123731769 2 53.436868440500774 2.3182512189646238 2 58.980852831335326 5.2355277896908934 2 63.219426278637798 7.9998319751249554 2 78.849408918838293 10.854851199189333 2 85.116417248557241 4.2124016482754998 2 84.008299506772289 8.4360028826649707 2 92.960357005923115 4.1021068030475849 2 98.004206754377833 5.8345149468830577 2 16.715720030226361 5.6355009480013516 2 29.328990493674894 7.1961659911452625 2 55.021708362410273 13.834619263144962 2 58.773304315082186 7.6353537131096498 2 62.083517531339623 3.5022080456052285 2 84.356947734788861 2.6677696571834879 2 88.662255221130522 1 2 90.832451975618341 13.605808419194213 2 99.0 9.0386367991829193 2 6.8523646344509075 5.8961919762158725 2 14.163379006367098 9.4839433303162721 2 30.782450613117184 7.072406077665109 2 55.915598551132021 1 2 56.548748855809109 3.9924256255787149 2 66.741918865466658 13.461111931326993 2 82.533521814843979 9.4215848807665292 2 82.824812768825112 2.7672106239219572 2 88.503424355484185 5.3285988683904133 2 91.984677330508021 7.2915202759033644 2 99.0 2.0688280125367009 2 15.961263862856802 9.3517860975852543 2 28.622602738354445 1.8554552841480152 2 57.349655327256471 5.5290911700020731 2 58.675005117233844 6.4888332728046105 2 65.914591698949536 4.1891453406932175 2 86.254295315657529 3.7617792336008158 2 88.97609003323619 3.4063712089589018 2 90.743028298500974 11.546044983518525 2 97.287725535176989 5.023751961055078 2 7.7405980411376536 7.1062058006720639 2 11.812605285275426 6.6488938152256898 2 33.07762359015971 5.1017737799268579 2 50.995056436032222 3.0638535661959936 2 59.694590068226866 4.2582122627086729 2 64.275271787638175 7.7737326452360929 2 82.288464161003191 13.201414517948146 2 85.390298160254744 8.2557051038847522 2 84.203248160494951 11.07453425589242 2 93.480494718127858 4.7880832016600783 2 97.230433088738039 3.8453908515467843 2 15.970596727718853 2.9171707275506318 2 31.904008675958664 4.1563392954656386 2 54.380999409180141 8.5090832566510866 2 61.024617464925008 5.5259546570748332 2 63.077531630007456 3.762462670544835 2 86.9914064472066 2.8584792687642042 2 90.73385306820856 1 2 88.061272483101149 13.37215986304529 2 97.484907924644517 8.5698705643034199 2 5.6848604615366778 5.3502754305616946 2 14.181895325903175 12.077930930332794 2 31.72254764330431 9.3746447077814192 2 54.306282693540382 3.0151637920176344 2 57.43407179467841 2.1871737201989996 2 62.985262197556885 12.909243969484786 2 81.920573024610775 11.226213616296397 2 84.581879066145518 1.9568328583910126 2 86.269542881210981 7.5950270875329968 2 90.365803324971836 8.4647754712107481 2 96.536885943607714 2.5974500188212497 2 16.480331758705109 10.328629587268368 2 30.2717826779067 3.4235886401459243 2 56.533681234385796 7.3342592114238991 2 57.714911821921213 11.08676823950279 2 67.000074217651942 5.3572665033259623 2 86.457786674002392 6.6731903675898865 2 90.404458152968672 5.1890582636605824 2 87.013761299665717 9.4214536632215058 2 96.811776255186572 6.655541201418651 2 11.723513708195034 12.138596226253929 2 9.2368316826650023 6.7573290669527859 2 35.078962035208079 7.8869888467559406 2 53.851400395406031 1 2 59.57410239499854 6.1620696651646867 2 63.714073184646018 10.419573913223456 2 79.002397802031041 12.031368974071588 2 84.59776266869747 6.8423620339540143 2 83.17135043203993 8.710070228266547 2 92.031982755575342 4.3464774220057167 2 97.589887790407005 6.9974547189595642 2 19.829696161737001 5.3849365281471595 2 29.495852966253587 8.0549888233453473 2 54.095927407676768 11.961948936588218 2 61.47890616542194 7.2624614162649923 2 63.288798382402184 5.7657596080252196 2 84.701849989652246 3.4110564119263813 2 87.808205735826732 1 2 89.667766099009015 15.148288629088984 2 99.0 10.435453509633724 2 4.7331777350166435 4.2683354024710383 2 13.074703443379342 8.5298191319396732 2 29.944403895521528 5.5970327713071955 2 56.125398483220778 2.3869948681815352 2 59.459490991273732 1 2 68.108321054181232 12.963801347275867 2 80.888080188780478 9.440287121100571 2 82.720783193272425 4.484273898584159 2 90.06369282016243 6.4706149786573723 2 91.469336513452163 5.3097328802274717 2 97.346564251693906 3.0103246182355781 2 16.479484709603629 7.6009931798959718 2 29.923450608185597 1 2 55.3576429816382 5.9208582922464705 2 59.123652302868443 9.9267701495972567 2 67.334475834780974 6.387291299039167 2 88.331372066680274 3.8895831205612055 2 89.427177366271366 4.9657718922886014 2 87.785792776240754 11.214339746918107 2 99.0 3.3099996893497905 2 10.629823818075074 9.5765502509873794 2 11.040428616426585 5.5808087782026483 2 32.710575178979205 8.290742869116178 2 54.096143616556475 4.4252499413694162 2 61.862224122618684 5.4483876550853845 2 65.347084444054076 6.9111868723247802 2 80.564733827823659 11.833193312581532 2 87.498102896273593 8.067109352977873 2 86.648312526563501 12.290921416595719 2 93.013030204364455 2.8298602342142529 2 99.0 4.5357690742508359 2 </DataArray>
</Points>
<Cells>
<DataArray Name="connectivity" format="ascii" type="Int32">0</DataArray>
<DataArray Name="offsets" format="ascii" type="Int32">0</DataArray>
<DataArray Name="types" format="ascii" type="UInt8">1</DataArray>
</Cells>
<PointData>
<DataArray Name="Points" NumberOfComponents="3" format="ascii" type="Float32">1.2 1.2 2 3.7728140740812308 5.7824127209782912 2 3.9916745301011138 3.1076533892498146 2 16.225721006241283 4.6034898257043455 2 30.203254268508196 4.1736526357207335 2 39.75939855141565 7.695394923040598 2 40.779911649543784 4.9648734663963756 2 55.696776404402222 8.9555036424567653 2 62.590796827534383 6.3891198216051173 2 64.363673193904702 4.6366172321435597 2 77.84462299856871 4.8581973978837993 2 86.111393126138708 1 2 89.113726937182818 2.1998305721746187 2 86.593833276355468 14.033744518041361 2 97.066601385572056 7.8088911191399974 2 6.6305333079744386 8.7305723685237453 2 12.061956589835393 9.2106543956127283 2 32.638494990720936 10.241910609796953 2 41.670474677170425 6.130721662561375 2 55.721487381139951 3.7913972880564866 2 58.599847023038066 3.3887265568445488 2 65.262613765071336 14.137809942857411 2 84.072192396597956 12.62249807732759 2 83.764901424271173 1.0536114213384644 2 88.223244960607985 8.9190287629424958 2 89.28847673314641 8.4150020183234986 2 98.369834673371884 1 2 17.537622778914745 11.317711862382383 2 32.254122625931892 1.3346606589297496 2 56.704493554029987 6.4717935929142065 2 58.075036556151225 9.590614101934964 2 65.737442262980835 3.4180452463996653 2 86.794105651963037 4.814431863151392 2 90.891402959531149 6.1524114964827357 2 87.901181175063115 12.147947298333682 2 95.826347638019044 6.8540605976406148 2 7.8634224122622118 10.002082681014761 2 9.798038585897471 5.1940739927706758 2 35.115347306615007 9.38876764740818 2 54.419035019458889 1.4992170681669899 2 58.566314488731862 4.3775237526898136 2 64.633854859387924 8.6667413873956907 2 79.344875604338142 9.6140051366029304 2 85.452302162223916 5.0142502545906487 2 84.838810620685749 8.8842788769760226 2 92.482274552487553 5.3399345062781043 2 99.0 7.451351221372903 2 17.839028976780931 5.3499389140639328 2 29.90218544037549 8.9428345627310488 2 55.876185357030899 12.386774832485946 2 60.051230845551757 7.1184893196382353 2 63.057962972127889 2.7436002636781902 2 85.611238093138581 3.1093590960227862 2 87.279196937744445 1.1881796831659792 2 89.6437365120468 13.095107505392104 2 98.671209377515481 8.3852195023505445 2 7.0686018071318237 4.6012314372111751 2 15.026119239526695 8.4367929229970553 2 31.508815408312014 6.7620879017136559 2 55.160959970874593 1.2381965059339415 2 56.979008082209617 2.8338879773873296 2 67.977220600108566 14.603313490665691 2 83.512436484693325 10.147263838419773 2 82.219961466456951 3.5407227441385856 2 88.225960600737338 6.3752823552113469 2 90.570319061236106 7.3981935063043327 2 98.955905163610424 2.681072130716585 2 17.206623926742306 8.7433787374854681 2 29.10242082174236 1 2 57.370501408137528 4.6921237300164318 2 57.979672860141555 7.776593822125343 2 65.510335785773549 5.0320717953656953 2 87.026822221821888 3.9616519119780214 2 89.833638035078792 3.2220398127793284 2 89.629870417056964 11.571328575623845 2 96.291450708303998 4.4935203083368869 2 8.7423078936905192 8.245773808272217 2 12.170124893058505 7.4548198111516024 2 32.798690633411766 6.0659297282316489 2 52.579704378895023 2.8721763850630357 2 60.09913212194926 5.1215115020656716 2 63.663556619546164 6.8433614313372884 2 80.726042455791244 13.181693719388692 2 85.376665434595537 6.9398349530510473 2 85.040541939403127 9.9707168082980662 2 93.67613819156378 3.3595172084969738 2 98.825106603272175 3.925292300694962 2 16.962003574387619 2.6612338256180852 2 31.733651235017394 5.1494163998475351 2 54.698046253322318 7.5952841524749646 2 61.256560222547051 4.4132274430640344 2 64.272401451891653 3.7513120900969605 2 86.754297751376967 1.8505017473269769 2 90.134330036814859 1.2611203944998404 2 88.354952951572983 14.653753451919245 2 96.798016680799364 9.2250853134438149 2 5.142018189827029 6.7957076612587244 2 13.715728028678143 10.752536060830126 2 31.060647533604833 8.5886283741827114 2 55.15111570101201 2.7436130646231174 2 57.652924267391583 1 2 62.901016307849979 14.58191382104245 2 82.871369914069817 11.772553003794783 2 85.375493749126406 1 2 86.40260627143175 8.6365434632687901 2 90.033333877361926 9.6273832992042756 2 97.453008038198504 1.2258191399571914 2 15.587328546544189 11.31952385118147 2 31.355052899744798 2.4647957636918445 2 56.728411718875684 8.2472992506543807 2 56.569586686538933 10.791711589967813 2 67.566252874963538 4.5845660752872623 2 86.491816581928248 5.7041800724545029 2 89.849138706747723 4.2849865644848579 2 86.201599345281991 10.250500850120124 2 96.864402512702455 5.6325491406944099 2 10.586000727831124 11.180670628672443 2 8.3158423107880637 5.7271694911841919 2 33.958477126392424 6.8088365656433414 2 52.949165940278561 1 2 57.835224870432171 6.1857246588371151 2 64.941808426839017 9.7589631759499724 2 78.044843464496523 12.975081660113934 2 85.23541178729829 5.7580155433905116 2 83.664234621838773 7.4602921856213964 2 91.133397155612556 4.3685940889248958 2 99.0 6.048060345933064 2 18.632230295409389 5.917523768688131 2 29.665699619595099 6.3962613762901652 2 54.370761907876322 10.668747520101583 2 60.491035309049437 8.0917679558541504 2 63.330544854269448 4.6898025380312642 2 83.568570402970224 3.1481985733883633 2 88.303418278118755 2.1122439153206716 2 90.989897979756037 15.798022302586277 2 98.149045350841192 9.8361272105240847 2 5.8290549191710372 3.6113195145099088 2 13.876880889333476 7.5432424571774872 2 30.77545751868778 5.1475795534420321 2 56.736714234369515 1 2 58.563304183036188 1 2 68.387989563063599 11.864965749485007 2 81.803826490944488 10.137656638136962 2 83.657940405219819 4.2670692983489538 2 89.454134273299218 7.2022289503583732 2 91.855853826871069 6.2289679897441621 2 96.204699410498208 3.4558641615417844 2 17.447962368466918 6.8893737907293415 2 30.683849970922061 1.2101216896001532 2 56.115723678467333 5.3140116431793123 2 59.388848580295324 8.6356536449458812 2 66.364499999666052 6.7911306838892216 2 87.897590638284555 2.9396750708160471 2 87.976539654277701 4.5977618894636052 2 89.211291093491241 9.8802738549188156 2 97.847565496550459 4.37396640072624 2 10.446988392872759 8.2018644030051426 2 10.416434987381876 6.6888119217664803 2 32.491537113572186 7.3268519029451147 2 53.261819054267754 3.6416255923624243 2 60.870348180711559 6.4051672701396036 2 64.523866209661023 6.3811983816696083 2 80.28505234977645 10.608339555953547 2 87.627860837854527 7.0962092342381906 2 85.673217131700227 11.345762468853341 2 92.228489571545751 3.440513969152653 2 99.0 5.2892002077781912 2 17.110883364893969 4.0620080461919752 2 30.277364661707409 2.4786566146384525 2 40.678104606293672 7.0678073042122529 2 55.497295958017681 10.088428942500416 2 62.47309556279879 4.7800182783706546 2 64.747315977225483 5.5044004705266136 2 77.369642334836215 5.7898695061024972 2 85.951985390204456 2.2405005138915293 2 89.459711344542868 1 2 85.611725673146736 12.739674568465839 2 98.515948997893759 6.9126436808352549 2 6.343238664306484 7.3851300872921417 2 12.362020987224081 10.527172485280165 2 33.582812660680084 9.2901115005862671 2 57.577915302894965 3.7724314014280806 2 58.30762131568212 2.1988814408230417 2 64.161651539274928 13.260560451231678 2 84.657550447019148 14.068066660985789 2 84.459429515223945 1 2 87.599496438187913 10.111120835142145 2 88.626580545210302 7.652165324262584 2 97.783001243492151 2.4427319725716248 2 19.16608940840737 11.666930026326543 2 31.459467202990389 1 2 55.364258402101441 7.0309801585528451 2 57.322546615321656 9.1183208136946874 2 66.789561714611153 4.1287726332137851 2 87.413921843306966 5.7771827512991756 2 89.212150332343427 6.0326626346585304 2 88.762203223581949 10.68566289530939 2 95.964093611697493 7.8645529181687541 2 9.2090353990477496 10.59152061138805 2 8.7142568980781405 4.5900412528458396 2 33.955294996741692 8.0941401123731769 2 53.436868440500774 2.3182512189646238 2 58.980852831335326 5.2355277896908934 2 63.219426278637798 7.9998319751249554 2 78.849408918838293 10.854851199189333 2 85.116417248557241 4.2124016482754998 2 84.008299506772289 8.4360028826649707 2 92.960357005923115 4.1021068030475849 2 98.004206754377833 5.8345149468830577 2 16.715720030226361 5.6355009480013516 2 29.328990493674894 7.1961659911452625 2 55.021708362410273 13.834619263144962 2 58.773304315082186 7.6353537131096498 2 62.083517531339623 3.5022080456052285 2 84.356947734788861 2.6677696571834879 2 88.662255221130522 1 2 90.832451975618341 13.605808419194213 2 99.0 9.0386367991829193 2 6.8523646344509075 5.8961919762158725 2 14.163379006367098 9.4839433303162721 2 30.782450613117184 7.072406077665109 2 55.915598551132021 1 2 56.548748855809109 3.9924256255787149 2 66.741918865466658 13.461111931326993 2 82.533521814843979 9.4215848807665292 2 82.824812768825112 2.7672106239219572 2 88.503424355484185 5.3285988683904133 2 91.984677330508021 7.2915202759033644 2 99.0 2.0688280125367009 2 15.961263862856802 9.3517860975852543 2 28.622602738354445 1.8554552841480152 2 57.349655327256471 5.5290911700020731 2 58.675005117233844 6.4888332728046105 2 65.914591698949536 4.1891453406932175 2 86.254295315657529 3.7617792336008158 2 88.97609003323619 3.4063712089589018 2 90.743028298500974 11.546044983518525 2 97.287725535176989 5.023751961055078 2 7.7405980411376536 7.1062058006720639 2 11.812605285275426 6.6488938152256898 2 33.07762359015971 5.1017737799268579 2 50.995056436032222 3.0638535661959936 2 59.694590068226866 4.2582122627086729 2 64.275271787638175 7.7737326452360929 2 82.288464161003191 13.201414517948146 2 85.390298160254744 8.2557051038847522 2 84.203248160494951 11.07453425589242 2 93.480494718127858 4.7880832016600783 2 97.230433088738039 3.8453908515467843 2 15.970596727718853 2.9171707275506318 2 31.904008675958664 4.1563392954656386 2 54.380999409180141 8.5090832566510866 2 61.024617464925008 5.5259546570748332 2 63.077531630007456 3.762462670544835 2 86.9914064472066 2.8584792687642042 2 90.73385306820856 1 2 88.061272483101149 13.37215986304529 2 97.484907924644517 8.5698705643034199 2 5.6848604615366778 5.3502754305616946 2 14.181895325903175 12.077930930332794 2 31.72254764330431 9.3746447077814192 2 54.306282693540382 3.0151637920176344 2 57.43407179467841 2.1871737201989996 2 62.985262197556885 12.909243969484786 2 81.920573024610775 11.226213616296397 2 84.581879066145518 1.9568328583910126 2 86.269542881210981 7.5950270875329968 2 90.365803324971836 8.4647754712107481 2 96.536885943607714 2.5974500188212497 2 16.480331758705109 10.328629587268368 2 30.2717826779067 3.4235886401459243 2 56.533681234385796 7.3342592114238991 2 57.714911821921213 11.08676823950279 2 67.000074217651942 5.3572665033259623 2 86.457786674002392 6.6731903675898865 2 90.404458152968672 5.1890582636605824 2 87.013761299665717 9.4214536632215058 2 96.811776255186572 6.655541201418651 2 11.723513708195034 12.138596226253929 2 9.2368316826650023 6.7573290669527859 2 35.078962035208079 7.8869888467559406 2 53.851400395406031 1 2 59.57410239499854 6.1620696651646867 2 63.714073184646018 10.419573913223456 2 79.002397802031041 12.031368974071588 2 84.59776266869747 6.8423620339540143 2 83.17135043203993 8.710070228266547 2 92.031982755575342 4.3464774220057167 2 97.589887790407005 6.9974547189595642 2 19.829696161737001 5.3849365281471595 2 29.495852966253587 8.0549888233453473 2 54.095927407676768 11.961948936588218 2 61.47890616542194 7.2624614162649923 2 63.288798382402184 5.7657596080252196 2 84.701849989652246 3.4110564119263813 2 87.808205735826732 1 2 89.667766099009015 15.148288629088984 2 99.0 10.435453509633724 2 4.7331777350166435 4.2683354024710383 2 13.074703443379342 8.5298191319396732 2 29.944403895521528 5.5970327713071955 2 56.125398483220778 2.3869948681815352 2 59.459490991273732 1 2 68.108321054181232 12.963801347275867 2 80.888080188780478 9.440287121100571 2 82.720783193272425 4.484273898584159 2 90.06369282016243 6.4706149786573723 2 91.469336513452163 5.3097328802274717 2 97.346564251693906 3.0103246182355781 2 16.479484709603629 7.6009931798959718 2 29.923450608185597 1 2 55.3576429816382 5.9208582922464705 2 59.123652302868443 9.9267701495972567 2 67.334475834780974 6.387291299039167 2 88.331372066680274 3.8895831205612055 2 89.427177366271366 4.9657718922886014 2 87.785792776240754 11.214339746918107 2 99.0 3.3099996893497905 2 10.629823818075074 9.5765502509873794 2 11.040428616426585 5.5808087782026483 2 32.710575178979205 8.290742869116178 2 54.096143616556475 4.4252499413694162 2 61.862224122618684 5.4483876550853845 2 65.347084444054076 6.9111868723247802 2 80.564733827823659 11.833193312581532 2 87.498102896273593 8.067109352977873 2 86.648312526563501 12.290921416595719 2 93.013030204364455 2.8298602342142529 2 99.0 4.5357690742508359 2 </DataArray>