<?xml version="1.0" ?>
<VTKFile byte_order="LittleEndian" type="UnstructuredGrid" version="0.1">
<UnstructuredGrid>
<Piece NumberOfCells="0" NumberOfPoints="8">
<Points>
<DataArray NumberOfComponents="3" format="ascii" type="Float32">13.18519014817339 2.7931508713238982 2 24.201369789058344 1.2 2 44.828061238625793 2.8220914969855029 2 75.619550363513326 1.2 2 11.422720857146039 1.2 2 22.796288282369783 3.1239567887506436 2 43.079808588951643 1.2 2 76.7855678998028 3.2846517100458623 2 </DataArray>
</Points>
<Cells>
<DataArray Name="connectivity" format="ascii" type="Int32">0</DataArray>
<DataArray Name="offsets" format="ascii" type="Int32">0</DataArray>
<DataArray Name="types" format="ascii" type="UInt8">1</DataArray>
</Cells>
<PointData>
<DataArray Name="Points" NumberOfComponents="3" format="ascii" type="Float32">13.18519014817339 2.7931508713238982 2 24.201369789058344 1.2 2 44.828061238625793 2.8220914969855029 2 75.619550363513326 1.2 2 11.422720857146039 1.2 2 22.796288282369783 3.1239567887506436 2 43.079808588951643 1.2 2 76.7855678998028 3.2846517100458623 2 </DataArray>
<DataArray Name="forces" NumberOfComponents="3" format="ascii" type="Float32">0.016058378627512811 0.063411047086424782 0.0 -0.035751826354046945 -0.051409763403814042 0.0 0.0072582889298138708 0.0067924183251930493 0.0 0.0068733355391538686 -0.019418177863560062 0.0 0.028007556963936281 -0.039937054781874495 0.0 -0.011311537922110091 0.051608606624036733 0.0 0.0052612340639932266 -0.0067924183251930493 0.0 0.01084921220479812 0.019418177863560062 0.0 </DataArray>
<DataArray Name="radii" format="ascii" type="Float32">1.2 1.2 1.2 1.2 1.2 1.2 1.2 1.2 </DataArray>
</PointData>
<CellData/>
</Piece>
</UnstructuredGrid>
</VTKFile>
