<?xml version="1.0" ?>
<VTKFile byte_order="LittleEndian" type="UnstructuredGrid" version="0.1">
<UnstructuredGrid>
<Piece NumberOfCells="0" NumberOfPoints="15">
<Points>
<DataArray NumberOfComponents="3" format="ascii" type="Float32">1.2 1.2 2 5.2799472002215859 2.4806440475105296 2 9.1938113787615841 2.7864660642644519 2 14.884277661024109 2.8714984170094313 2 31.029154233172068 1.5999999999999999 2 39.598032081945071 2.8589221724112277 2 43.187141569289409 2.9349984772591036 2 56.915662808966964 1.5999999999999999 2 59.895438931948554 1.5999999999999999 2 64.666140032458216 4.1612501882779993 2 81.001551819768125 3.9585739945633844 2 86.05017622335491 1.5999999999999999 2 89.053941241112639 1.5999999999999999 2 90.554903088542275 4.2124864820002044 2 98.4 1.5999999999999999 2 </DataArray>
</Points>
<Cells>
<DataArray Name="connectivity" format="ascii" type="Int32">0</DataArray>
<DataArray Name="offsets" format="ascii" type="Int32">0</DataArray>
<DataArray Name="types" format="ascii" type="UInt8">1</DataArray>
</Cells>
<PointData>
<DataArray Name="Points" NumberOfComponents="3" format="ascii" type="Float32">1.2 1.2 2 5.2799472002215859 2.4806440475105296 2 9.1938113787615841 2.7864660642644519 2 14.884277661024109 2.8714984170094313 2 31.029154233172068 1.5999999999999999 2 39.598032081945071 2.8589221724112277 2 43.187141569289409 2.9349984772591036 2 56.915662808966964 1.5999999999999999 2 59.895438931948554 1.5999999999999999 2 64.666140032458216 4.1612501882779993 2 81.001551819768125 3.9585739945633844 2 86.05017622335491 1.5999999999999999 2 89.053941241112639 1.5999999999999999 2 90.554903088542275 4.2124864820002044 2 98.4 1.5999999999999999 2 </DataArray>
<DataArray Name="forces" NumberOfComponents="3" format="ascii" type="Float32">-0.10891718271151418 0.0024306468847384763 0.0 -0.00031439884318175404 0.10985015512880096 0.0 -0.018271767873631925 0.11904962861528344 0.0 0.044458119423402706 0.091917247976514044 0.0 0.075640260415289137 -0.077283324771487333 0.0 -0.019829622752876575 0.036511021157602061 0.0 -0.009599005960515189 0.063835486534674676 0.0 -0.061042530594336286 -0.064327540546151488 0.0 -0.035839391128654086 0.0 0.0 -0.030283862352226291 0.091116697304033156 0.0 -0.0372410568814052 0.042027465769433239 0.0 0.046623969850287494 0.0 0.0 0.10514113545233977 -0.17406583188393643 0.0 -0.1214396595966005 0.23057598727567152 0.0 0.39132682287855092 0.0 0.0 </DataArray>
<DataArray Name="radii" format="ascii" type="Float32">1.2 1.2 1.5999999999999999 1.5999999999999999 1.5999999999999999 1.2 1.5999999999999999 1.5999999999999999 1.5999999999999999 1.5999999999999999 1.5999999999999999 1.5999999999999999 1.5999999999999999 1.5999999999999999 1.5999999999999999 </DataArray>
</PointData>
<CellData/>
</Piece>
</UnstructuredGrid>
</VTKFile>
