<?xml version="1.0" ?>
<VTKFile byte_order="LittleEndian" type="UnstructuredGrid" version="0.1">
<UnstructuredGrid>
<Piece NumberOfCells="0" NumberOfPoints="62">
<Points>
<DataArray NumberOfComponents="3" format="ascii" type="Float32">0 0 0 8.8662861941267241 1.5999999999999999 2 19.254312751793083 4.4555356223919595 2 21.875013286434051 8.2531400569303539 2 23.779752828721801 1.5999999999999999 2 26.261044167014145 1.5999999999999999 2 35.429381957604349 3.8945032965056248 2 37.793664101369814 4.0145337702426875 2 46.224665243217736 1.866139271079559 2 49.234318428932099 6.4634510846680895 2 53.855233688016867 7.2844352837396205 2 63.108398910197828 1.5999999999999999 2 67.432560276814698 5.5839137204775895 2 70.181555039831792 5.6236635295189075 2 73.943037057201607 7.2389439606024171 2 76.802234885294652 2.8513947865111593 2 82.619258716393787 5.806447701011324 2 93.362871415152668 6.4920277184572361 2 96.166402240443915 1.5999999999999999 2 14.240021062876048 4.0865156104520715 2 20.750967447402147 6.1873011387150552 2 23.635524896376847 6.6330511636665106 2 27.540540594449276 4.4953030149396715 2 33.750963064485369 1.5999999999999999 2 44.597066699014327 4.4658545323881089 2 47.369774413472918 4.8202352719829085 2 52.486806406185536 5.4952743197703944 2 62.757418347437955 9.066315680577226 2 68.679164403341787 3.3667179660173745 2 70.47195819635742 2.4825543620332038 2 72.503616619328326 4.6684132898349064 2 76.52081058442306 1 2 81.957289009837609 1.5999999999999999 2 94.57864700808264 9.1935727142735733 2 95.882766216262439 6.6128328353907682 2 11.271175423754826 1.6223921875782163 2 25.074268897727332 4.187792270510454 2 28.561755814175843 1.5999999999999999 2 35.829873213230599 7.3946322994220957 2 43.704312757734485 1.5999999999999999 2 61.128330151411184 1.5999999999999999 2 67.253659706387808 8.02612133099373 2 70.121845109796894 8.397223330930137 2 76.504203616929985 5.8099343664114569 2 80.190019279490016 4.6582567790964458 2 94.509246421975178 3.9857170815873459 2 93.883943358868947 1.5999999999999999 2 13.665864866796911 1.5999999999999999 2 22.248262717332455 3.8902161508482598 2 26.243995476320713 7.1489931448103983 2 28.845674235051504 7.4985761125361243 2 32.421422234553759 3.7262528924949057 2 44.38453675715386 7.3958251178032235 2 50.209800191322429 4.1921855542278381 2 54.886986694189922 4.2439173973897093 2 61.113761991360803 7.1616106749508273 2 67.625238761688152 1.5999999999999999 2 72.114246002693307 1.5999999999999999 2 74.811270230223045 3.6041912149595525 2 83.001981232688266 3.6127455112202718 2 91.651223655746961 8.8444384633359139 2 97.61325936442627 9.110088984343145 2 </DataArray>
</Points>
<Cells>
<DataArray Name="connectivity" format="ascii" type="Int32">0</DataArray>
<DataArray Name="offsets" format="ascii" type="Int32">0</DataArray>
<DataArray Name="types" format="ascii" type="UInt8">1</DataArray>
</Cells>
<PointData>
<DataArray Name="Points" NumberOfComponents="3" format="ascii" type="Float32">0 0 0 8.8662861941267241 1.5999999999999999 2 19.254312751793083 4.4555356223919595 2 21.875013286434051 8.2531400569303539 2 23.779752828721801 1.5999999999999999 2 26.261044167014145 1.5999999999999999 2 35.429381957604349 3.8945032965056248 2 37.793664101369814 4.0145337702426875 2 46.224665243217736 1.866139271079559 2 49.234318428932099 6.4634510846680895 2 53.855233688016867 7.2844352837396205 2 63.108398910197828 1.5999999999999999 2 67.432560276814698 5.5839137204775895 2 70.181555039831792 5.6236635295189075 2 73.943037057201607 7.2389439606024171 2 76.802234885294652 2.8513947865111593 2 82.619258716393787 5.806447701011324 2 93.362871415152668 6.4920277184572361 2 96.166402240443915 1.5999999999999999 2 14.240021062876048 4.0865156104520715 2 20.750967447402147 6.1873011387150552 2 23.635524896376847 6.6330511636665106 2 27.540540594449276 4.4953030149396715 2 33.750963064485369 1.5999999999999999 2 44.597066699014327 4.4658545323881089 2 47.369774413472918 4.8202352719829085 2 52.486806406185536 5.4952743197703944 2 62.757418347437955 9.066315680577226 2 68.679164403341787 3.3667179660173745 2 70.47195819635742 2.4825543620332038 2 72.503616619328326 4.6684132898349064 2 76.52081058442306 1 2 81.957289009837609 1.5999999999999999 2 94.57864700808264 9.1935727142735733 2 95.882766216262439 6.6128328353907682 2 11.271175423754826 1.6223921875782163 2 25.074268897727332 4.187792270510454 2 28.561755814175843 1.5999999999999999 2 35.829873213230599 7.3946322994220957 2 43.704312757734485 1.5999999999999999 2 61.128330151411184 1.5999999999999999 2 67.253659706387808 8.02612133099373 2 70.121845109796894 8.397223330930137 2 76.504203616929985 5.8099343664114569 2 80.190019279490016 4.6582567790964458 2 94.509246421975178 3.9857170815873459 2 93.883943358868947 1.5999999999999999 2 13.665864866796911 1.5999999999999999 2 22.248262717332455 3.8902161508482598 2 26.243995476320713 7.1489931448103983 2 28.845674235051504 7.4985761125361243 2 32.421422234553759 3.7262528924949057 2 44.38453675715386 7.3958251178032235 2 50.209800191322429 4.1921855542278381 2 54.886986694189922 4.2439173973897093 2 61.113761991360803 7.1616106749508273 2 67.625238761688152 1.5999999999999999 2 72.114246002693307 1.5999999999999999 2 74.811270230223045 3.6041912149595525 2 83.001981232688266 3.6127455112202718 2 91.651223655746961 8.8444384633359139 2 97.61325936442627 9.110088984343145 2 </DataArray>
<DataArray Name="forces" NumberOfComponents="3" format="ascii" type="Float32">0 0 0 -0.13082449062856383 -0.12608901996824257 0.0 0.11824601809294279 0.032746679253748356 0.0 -0.034375686590425225 0.36002350251045895 0.0 -0.080683661865864176 -0.68944970853532483 0.0 -0.047897357607066038 -0.37116847683062443 0.0 0.077868131179448963 0.15760170080404204 0.0 0.10164547164676517 0.16550234141064268 0.0 0.012992026585741501 0.12130741966738512 0.0 0.038904449565608019 0.20023546499062672 0.0 -0.13943209596999045 0.3194751302580624 0.0 0.071842348737522724 -0.708088639604739 0.0 -0.10328613743077036 0.3750742084379457 0.0 0.089611351443203341 0.29974233775359571 0.0 -0.10706601725989992 0.36491449210457327 0.0 0.065238946073851278 -0.062277930280520727 0.0 0.23715260030839155 0.5137514351070156 0.0 -0.029327191641718736 0.42074956906164523 0.0 -0.0040936805170141005 -0.98307769656198463 0.0 0.0072592705122366263 0.32804108637359136 0.0 -0.3174889952148191 0.51374155379600883 0.0 -0.23007454132323607 0.23393583257746461 0.0 -0.073020734408920013 0.15200933898201288 0.0 0.087913827351424834 -0.74713225299578956 0.0 -0.097751345756760616 0.133193031961092 0.0 -0.03287887439443582 0.20426193260687553 0.0 -0.16947926850679773 0.42823101604957076 0.0 -0.057450908304583034 0.53050412951071069 0.0 0.025262816226135465 0.48619744798456055 0.0 -0.031348758565494572 -0.045649195165897494 0.0 0.079591242865268974 0.056129574943051541 0.0 0.043312989496969656 -0.15174795565875918 0.0 -0.10555357456851788 -1.0552184826314779 0.0 0.046689934664289862 0.53930544097384858 0.0 0.01440110262418845 0.47477067168857551 0.0 -0.029998794544527443 -0.19569473914267121 0.0 -0.18426597950318144 0.22788759898255218 0.0 0.041586762312394443 -0.43186371159386838 0.0 0.4640272526099013 0.30418338916431398 0.0 -0.10254133153918461 -0.67769929709155496 0.0 -0.056757956503451112 -0.46635241373632524 0.0 0.16098988479099316 0.44837834349740974 0.0 0.30422978496115516 0.47960896458663982 0.0 -0.078680481849216777 0.23253267286018928 0.0 0.024949730458003017 0.24253574745977591 0.0 -0.044968809461535031 0.31058983754810482 0.0 -0.0028865845015787484 -1.1431366910630671 0.0 0.077014709795332092 -0.49965725577487502 0.0 -0.31639114330130336 0.19921478881162991 0.0 -0.14428223271218454 0.2798450659931393 0.0 -0.059627823996453277 0.32609753587878976 0.0 0.10069372000527094 0.33839443455884965 0.0 -0.020310369369090347 0.27154592356353568 0.0 -0.023366347108556673 0.18533431180468746 0.0 -0.16602903445874589 0.20256008797568215 0.0 0.095485371906839367 0.18716020077770013 0.0 0.12279755974095363 -1.3397129243805419 0.0 0.17038251917531763 -0.81202576147694394 0.0 0.12728921341070398 0.060518686540965524 0.0 -0.29129097487935379 0.10510965914035331 0.0 -0.053514002031402871 0.46965532899816664 0.0 0.15188390563576804 0.52912520521000006 0.0 </DataArray>
<DataArray Name="radii" format="ascii" type="Float32">0 1.5999999999999999 1.2 1 1.5999999999999999 1.5999999999999999 1.5999999999999999 1.2 1.5999999999999999 1 1 1.5999999999999999 1.5999999999999999 1.5999999999999999 1.5999999999999999 1 1.5999999999999999 1.5999999999999999 1.5999999999999999 1.5999999999999999 1.5999999999999999 1.5999999999999999 1.5999999999999999 1.5999999999999999 1.5999999999999999 1.5999999999999999 1.5999999999999999 1.5999999999999999 1.5999999999999999 1.5999999999999999 1.5999999999999999 1 1.5999999999999999 1.5999999999999999 1.5999999999999999 1.5999999999999999 1.5999999999999999 1.5999999999999999 1.5999999999999999 1.5999999999999999 1.5999999999999999 1.5999999999999999 1.5999999999999999 1.5999999999999999 1.5999999999999999 1.5999999999999999 1.5999999999999999 1.5999999999999999 1.5999999999999999 1.5999999999999999 1.5999999999999999 1.5999999999999999 1.5999999999999999 1.5999999999999999 1.5999999999999999 1.5999999999999999 1.5999999999999999 1.5999999999999999 1.5999999999999999 1.5999999999999999 1.5999999999999999 1.5999999999999999 </DataArray>
</PointData>
<CellData/>
</Piece>
</UnstructuredGrid>
</VTKFile>
