<?xml version="1.0" ?>
<VTKFile byte_order="LittleEndian" type="UnstructuredGrid" version="0.1">
<UnstructuredGrid>
<Piece NumberOfCells="0" NumberOfPoints="47">
<Points>
<DataArray NumberOfComponents="3" format="ascii" type="Float32">1.2 1.2 2 5.2024932668973403 3.5894882289465744 2 8.5188631694958126 2.8116383829690093 2 16.107200379223809 3.7903505668895341 2 30.084351286859878 3.0050789826232682 2 39.5753417397896 3.8017308340990499 2 43.349679369650936 2.7657515532890837 2 57.425945757621193 5.5167694629154393 2 61.406213217793585 3.7370094721564695 2 64.036439611648149 3.9518556562302116 2 78.656783940985036 4.8021005797165595 2 87.007425706502232 1 2 89.32249371708869 1 2 89.378776726217495 8.4202706590224903 2 98.785391872164993 4.6245813322760894 2 9.7850968189064478 4.3435430374007327 2 13.509586062653165 5.0690070183726625 2 30.763363032581069 5.0900562395363735 2 41.760387904049459 3.959299561645393 2 57.573955034743307 1.624749043373479 2 59.371567065751293 1 2 65.306646028173745 7.7504141153999182 2 83.823835296741549 6.7389828535607483 2 84.756059684055785 1 2 88.475601778845203 4.7889756829063561 2 90.584195394339503 4.8168951112718421 2 97.837752054234386 1 2 15.412682508936321 5.6627022039257549 2 30.099382042149735 1 2 57.746165926862979 3.570572068903199 2 59.317645291834999 4.8798612203401568 2 65.979726467983397 3.4802602416140229 2 87.937298463664774 2.753221630374699 2 89.911616394057589 2.9695103644085288 2 89.54936877706352 6.4752665109410561 2 97.06562762265574 3.495937056465158 2 10.104308612996936 6.3119655955250238 2 11.762832205405553 4.1162122800172876 2 32.596851897763443 4.2952105182672087 2 55.773690542430529 1 2 59.619373259826986 2.925408851182127 2 64.545920483658023 5.8843759911766638 2 81.886189252518449 6.2435876987410657 2 85.791995741849064 2.6406335603772972 2 86.523134625864387 4.4355878225144743 2 92.114927030038615 3.6560199942726754 2 98.937472303703998 2.6425627165653229 2 </DataArray>
</Points>
<Cells>
<DataArray Name="connectivity" format="ascii" type="Int32">0</DataArray>
<DataArray Name="offsets" format="ascii" type="Int32">0</DataArray>
<DataArray Name="types" format="ascii" type="UInt8">1</DataArray>
</Cells>
<PointData>
<DataArray Name="Points" NumberOfComponents="3" format="ascii" type="Float32">1.2 1.2 2 5.2024932668973403 3.5894882289465744 2 8.5188631694958126 2.8116383829690093 2 16.107200379223809 3.7903505668895341 2 30.084351286859878 3.0050789826232682 2 39.5753417397896 3.8017308340990499 2 43.349679369650936 2.7657515532890837 2 57.425945757621193 5.5167694629154393 2 61.406213217793585 3.7370094721564695 2 64.036439611648149 3.9518556562302116 2 78.656783940985036 4.8021005797165595 2 87.007425706502232 1 2 89.32249371708869 1 2 89.378776726217495 8.4202706590224903 2 98.785391872164993 4.6245813322760894 2 9.7850968189064478 4.3435430374007327 2 13.509586062653165 5.0690070183726625 2 30.763363032581069 5.0900562395363735 2 41.760387904049459 3.959299561645393 2 57.573955034743307 1.624749043373479 2 59.371567065751293 1 2 65.306646028173745 7.7504141153999182 2 83.823835296741549 6.7389828535607483 2 84.756059684055785 1 2 88.475601778845203 4.7889756829063561 2 90.584195394339503 4.8168951112718421 2 97.837752054234386 1 2 15.412682508936321 5.6627022039257549 2 30.099382042149735 1 2 57.746165926862979 3.570572068903199 2 59.317645291834999 4.8798612203401568 2 65.979726467983397 3.4802602416140229 2 87.937298463664774 2.753221630374699 2 89.911616394057589 2.9695103644085288 2 89.54936877706352 6.4752665109410561 2 97.06562762265574 3.495937056465158 2 10.104308612996936 6.3119655955250238 2 11.762832205405553 4.1162122800172876 2 32.596851897763443 4.2952105182672087 2 55.773690542430529 1 2 59.619373259826986 2.925408851182127 2 64.545920483658023 5.8843759911766638 2 81.886189252518449 6.2435876987410657 2 85.791995741849064 2.6406335603772972 2 86.523134625864387 4.4355878225144743 2 92.114927030038615 3.6560199942726754 2 98.937472303703998 2.6425627165653229 2 </DataArray>
<DataArray Name="forces" NumberOfComponents="3" format="ascii" type="Float32">0.0 0.0 0.0 -0.0034404677240518528 0.0054127325300296651 0.0 0.0013151193909447089 -0.0033313908790938559 0.0 0.001777961232614056 0.0022504716643027994 0.0 -0.10184550871622196 0.050917651906497621 0.0 -0.005139985611122725 0.01376955149080171 0.0 0.012004915027827192 0.017556852402179801 0.0 -0.0058846843537310846 0.02968863996619233 0.0 -0.0013173236861998405 0.021157318022110204 0.0 -0.00047817647357587781 -0.0018234087433606101 0.0 0.0025079253344156872 0.006207551590885858 0.0 -0.0035364543174706336 -0.0065490706746638427 0.0 -0.0079040752995948559 -0.0013406390181289261 0.0 -0.0036343226531275097 0.037659851619515766 0.0 -0.00061820581367293549 0.0086127373740161068 0.0 -0.0033960254140798507 0.005190523269251443 0.0 0.0038832988976863847 0.0038799316285262923 0.0 -0.0016162237469991179 0.00070969470185972743 0.0 -0.0016235605036618098 0.010363592881204507 0.0 -0.00020828676000733681 0.01962433738706866 0.0 0.0084156935732159401 -0.096474047262743376 0.0 0.0 0.0 0.0 3.9939528112000398e-05 1.021977970710801e-05 0.0 -0.059135214779467919 -0.096951505479048114 0.0 0.0095153774323082588 -0.0085858458933684087 0.0 0.0016133991932376218 -0.030598806296827957 0.0 0.01399053110833556 -0.037460766996914419 0.0 0.0061173386865599885 0.0062480811590608018 0.0 0.061082416657296273 -0.018937496843671155 0.0 -0.0034919020344274642 0.026016628298343503 0.0 -0.015044739095274616 0.019439462486889301 0.0 -0.0044411978444780214 -0.00019156593233711494 0.0 -0.035950197410416058 0.0023266712342965784 0.0 0.012329994146187764 0.017417982001721503 0.0 -0.037986465323947338 0.053190387602118715 0.0 0.0 0.0 0.0 0.0011533796539317577 0.0071617703414506044 0.0 0.00030286050911967118 -0.00060141883628754642 0.0 0.0058201944298843528 0.017130399741945301 0.0 -0.023063458687087243 -0.067845627358747801 0.0 -0.01279375540044583 0.013969466627765388 0.0 0.0045677095181439926 -0.0022845752297682531 0.0 -0.00017498990818934677 0.00074696142443516451 0.0 0.043830766189574016 0.060285492443650911 0.0 -0.0021468634967103349 0.033301971882191507 0.0 0.026481483186670565 0.04543802312369212 0.0 0.01764550161329282 0.016747862238567855 0.0 </DataArray>
<DataArray Name="radii" format="ascii" type="Float32">1.2 1.2 1 1 1 1.2 1 1 1 1 1 1 1 1 1 1 1 1 1 1 1 1 1 1 1 1 1 1 1 1 1 1 1 1 1 1 1 1 1 1 1 1 1 1 1 1 1 </DataArray>
</PointData>
<CellData/>
</Piece>
</UnstructuredGrid>
</VTKFile>
