<?xml version="1.0" ?>
<VTKFile byte_order="LittleEndian" type="UnstructuredGrid" version="0.1">
<UnstructuredGrid>
<Piece NumberOfCells="0" NumberOfPoints="16">
<Points>
<DataArray NumberOfComponents="3" format="ascii" type="Float32">13.154091252731661 4.5398161497119265 2 23.382657117044847 2.1972908427940592 2 46.042717113085715 3.7748118299585012 2 75.418907810741018 1 2 11.97339441226147 2.7196958528830808 2 22.18641905419965 3.8089651688661874 2 44.207064037392655 2.9862938834426349 2 78.271180629581693 4.9448511728278888 2 15.512554991850106 4.0086854293285414 2 24.950153915831308 1 2 44.450055631764883 5.0748024045526794 2 77.402453570328888 1.2618842273233173 2 12.965416160977368 1 2 24.154033123532145 4.2101760636031864 2 44.280970080486696 1 2 77.060005098427098 3.3076447318305031 2 </DataArray>
</Points>
<Cells>
<DataArray Name="connectivity" format="ascii" type="Int32">0</DataArray>
<DataArray Name="offsets" format="ascii" type="Int32">0</DataArray>
<DataArray Name="types" format="ascii" type="UInt8">1</DataArray>
</Cells>
<PointData>
<DataArray Name="Points" NumberOfComponents="3" format="ascii" type="Float32">13.154091252731661 4.5398161497119265 2 23.382657117044847 2.1972908427940592 2 46.042717113085715 3.7748118299585012 2 75.418907810741018 1 2 11.97339441226147 2.7196958528830808 2 22.18641905419965 3.8089651688661874 2 44.207064037392655 2.9862938834426349 2 78.271180629581693 4.9448511728278888 2 15.512554991850106 4.0086854293285414 2 24.950153915831308 1 2 44.450055631764883 5.0748024045526794 2 77.402453570328888 1.2618842273233173 2 12.965416160977368 1 2 24.154033123532145 4.2101760636031864 2 44.280970080486696 1 2 77.060005098427098 3.3076447318305031 2 </DataArray>
<DataArray Name="forces" NumberOfComponents="3" format="ascii" type="Float32">0.0 0.0 0.0 0.0047664177356335005 -0.0012526600227018786 0.0 0.0030703834422424925 0.0013528684494302685 0.0 -0.0017306937792958266 -0.0002397182516174258 0.0 -0.00016349796207879046 0.00028328609634103356 0.0 -0.0069351496813847922 0.009380076479508094 0.0 -0.0039611107064692541 0.015029936134689404 0.0 0.0 0.0 0.0 0.0 0.0 0.0 -0.0054421633742137449 -0.027087889332185405 0.0 0.0 0.0 0.0 0.0017306937792958266 0.0002397182516174258 0.0 -0.0064024507080738327 -0.011453936583684017 0.0 0.0 0.0 0.0 -0.031870491682725183 -0.016382804584119674 0.0 -0.012336202445677912 0.0042938109919641674 0.0 </DataArray>
<DataArray Name="radii" format="ascii" type="Float32">1 1 1 1 1 1 1 1 1 1 1 1 1 1 1 1 </DataArray>
</PointData>
<CellData/>
</Piece>
</UnstructuredGrid>
</VTKFile>
