<?xml version="1.0" ?>
<VTKFile byte_order="LittleEndian" type="UnstructuredGrid" version="0.1">
<UnstructuredGrid>
<Piece NumberOfCells="0" NumberOfPoints="15">
<Points>
<DataArray NumberOfComponents="3" format="ascii" type="Float32">1.2 1.2 2 5.356008879813059 2.0138532793274404 2 9.438111003609194 2.1602440923786221 2 14.508329287178711 2.3059301210611696 2 30.62413048668807 1.4 2 39.717086863243452 2.5964325207705392 2 43.43299603467684 2.4199315379934814 2 57.366646412874942 1.4 2 60.0379516802087 1.4 2 64.548141263568567 3.4160776816213283 2 81.428662412908793 3.3457442540078657 2 85.982399048175182 1.4 2 88.634541374631922 1.4 2 90.686801690649062 3.1482514939804975 2 98.6 1.4 2 </DataArray>
</Points>
<Cells>
<DataArray Name="connectivity" format="ascii" type="Int32">0</DataArray>
<DataArray Name="offsets" format="ascii" type="Int32">0</DataArray>
<DataArray Name="types" format="ascii" type="UInt8">1</DataArray>
</Cells>
<PointData>
<DataArray Name="Points" NumberOfComponents="3" format="ascii" type="Float32">1.2 1.2 2 5.356008879813059 2.0138532793274404 2 9.438111003609194 2.1602440923786221 2 14.508329287178711 2.3059301210611696 2 30.62413048668807 1.4 2 39.717086863243452 2.5964325207705392 2 43.43299603467684 2.4199315379934814 2 57.366646412874942 1.4 2 60.0379516802087 1.4 2 64.548141263568567 3.4160776816213283 2 81.428662412908793 3.3457442540078657 2 85.982399048175182 1.4 2 88.634541374631922 1.4 2 90.686801690649062 3.1482514939804975 2 98.6 1.4 2 </DataArray>
<DataArray Name="forces" NumberOfComponents="3" format="ascii" type="Float32">-0.12600858051295283 0.0058026845854876798 0.0 -0.0094581624532733694 0.10577829415888583 0.0 -0.010180715649279054 0.11056614516496036 0.0 0.046616964936699354 0.092419384743212041 0.0 0.074968675483540442 -0.077922872700895734 0.0 -0.024624333596059835 0.055106014991668367 0.0 -0.023277945308146905 0.084457439807505752 0.0 -0.070737545736467358 -0.069941667709522773 0.0 0.0089953446661965586 0.0 0.0 0.044111455297511766 0.10602006460657558 0.0 -0.041645458170051886 0.13446716764468045 0.0 -0.010413615371589913 0.0 0.0 0.077762869522012737 -0.078648099943612035 0.0 0.038627191123517139 0.16497655541858014 0.0 0.35129769028157209 0.0 0.0 </DataArray>
<DataArray Name="radii" format="ascii" type="Float32">1.2 1.2 1.4 1.4 1.4 1.2 1.4 1.4 1.4 1.4 1.4 1.4 1.4 1.4 1.4 </DataArray>
</PointData>
<CellData/>
</Piece>
</UnstructuredGrid>
</VTKFile>
