<?xml version="1.0" ?>
<VTKFile byte_order="LittleEndian" type="UnstructuredGrid" version="0.1">
<UnstructuredGrid>
<Piece NumberOfCells="0" NumberOfPoints="47">
<Points>
<DataArray NumberOfComponents="3" format="ascii" type="Float32">1.2 1.2 2 5.1581013866369583 3.7020011306172069 2 8.2607626822927571 2.8841141220953577 2 16.361358194414183 3.9686524530479081 2 29.877498817254825 3.3909788886098284 2 39.534127204478708 3.9344692748454908 2 43.175224857392998 3.1151865868733144 2 56.934662972750964 5.9967356327744117 2 61.706332463779567 4.1870485237083397 2 63.963794162597935 3.9739525154039552 2 78.620923223488845 5.0205524787017319 2 86.964229705481912 1.2 2 89.168361612284869 1.2 2 89.376455254523819 9.2407868587004849 2 98.799999999999997 5.3466125320124283 2 9.4580243180381043 4.499681623307433 2 13.582833983297393 5.7024911235815496 2 30.841473048392743 5.5093317990243662 2 41.623303448044375 4.1761512696167458 2 57.351350651070575 1.4221894976148912 2 59.252334815905037 1.2 2 65.165532819005904 8.3588194808217526 2 84.004323897754247 6.7339599183261871 2 84.831725877181185 1.2 2 88.46974487785296 5.0586427339928557 2 90.860725911785906 5.2725623154045866 2 98.174560569498922 1.2 2 15.839934775641265 6.2532879619900186 2 30.524640006964741 1.2 2 57.668177761773357 3.7209199682505947 2 59.185327054365068 5.3864544284833213 2 66.132827902264793 3.4527377597121851 2 87.912375424738116 3.063276946622536 2 90.048347928255239 3.2988404622685268 2 89.345801843411266 7.0107045490063102 2 96.792312604384591 3.4860162822951377 2 10.209139126915133 6.6953895997527741 2 11.749599254601426 4.372194730874261 2 32.872722476144581 4.7169481133092628 2 55.390558961470028 1.2 2 59.839959207422204 3.1690866805229692 2 64.65106412072042 6.0332898568467437 2 81.511678523714323 6.8161312534523519 2 85.810605546878151 3.2029946560792992 2 86.141363482373563 5.4206056316439746 2 92.382188491613249 3.572979771099619 2 98.8 3.111518706281617 2 </DataArray>
</Points>
<Cells>
<DataArray Name="connectivity" format="ascii" type="Int32">0</DataArray>
<DataArray Name="offsets" format="ascii" type="Int32">0</DataArray>
<DataArray Name="types" format="ascii" type="UInt8">1</DataArray>
</Cells>
<PointData>
<DataArray Name="Points" NumberOfComponents="3" format="ascii" type="Float32">1.2 1.2 2 5.1581013866369583 3.7020011306172069 2 8.2607626822927571 2.8841141220953577 2 16.361358194414183 3.9686524530479081 2 29.877498817254825 3.3909788886098284 2 39.534127204478708 3.9344692748454908 2 43.175224857392998 3.1151865868733144 2 56.934662972750964 5.9967356327744117 2 61.706332463779567 4.1870485237083397 2 63.963794162597935 3.9739525154039552 2 78.620923223488845 5.0205524787017319 2 86.964229705481912 1.2 2 89.168361612284869 1.2 2 89.376455254523819 9.2407868587004849 2 98.799999999999997 5.3466125320124283 2 9.4580243180381043 4.499681623307433 2 13.582833983297393 5.7024911235815496 2 30.841473048392743 5.5093317990243662 2 41.623303448044375 4.1761512696167458 2 57.351350651070575 1.4221894976148912 2 59.252334815905037 1.2 2 65.165532819005904 8.3588194808217526 2 84.004323897754247 6.7339599183261871 2 84.831725877181185 1.2 2 88.46974487785296 5.0586427339928557 2 90.860725911785906 5.2725623154045866 2 98.174560569498922 1.2 2 15.839934775641265 6.2532879619900186 2 30.524640006964741 1.2 2 57.668177761773357 3.7209199682505947 2 59.185327054365068 5.3864544284833213 2 66.132827902264793 3.4527377597121851 2 87.912375424738116 3.063276946622536 2 90.048347928255239 3.2988404622685268 2 89.345801843411266 7.0107045490063102 2 96.792312604384591 3.4860162822951377 2 10.209139126915133 6.6953895997527741 2 11.749599254601426 4.372194730874261 2 32.872722476144581 4.7169481133092628 2 55.390558961470028 1.2 2 59.839959207422204 3.1690866805229692 2 64.65106412072042 6.0332898568467437 2 81.511678523714323 6.8161312534523519 2 85.810605546878151 3.2029946560792992 2 86.141363482373563 5.4206056316439746 2 92.382188491613249 3.572979771099619 2 98.8 3.111518706281617 2 </DataArray>
<DataArray Name="forces" NumberOfComponents="3" format="ascii" type="Float32">-0.10730746867423986 -0.010604144667036169 0.0 -0.013484532988968324 0.022461984858652466 0.0 -0.046151062632284162 0.068860996096022059 0.0 0.028136028868834456 0.04422584340224614 0.0 -0.048090427795588322 0.04641611596703743 0.0 0.01197221213270809 0.031430168710171236 0.0 -0.011018014797788613 0.047474552662990915 0.0 -0.072455905094025178 0.030970761015793158 0.0 0.058564268484655964 0.15294041499730432 0.0 0.057707757926641748 0.035477876135123015 0.0 -0.019463271570799218 0.084357463434855978 0.0 -0.027080611523894967 -0.3721922309414516 0.0 -0.023929005522265734 -0.28168856726477143 0.0 0.002976923459713266 0.17658282029640127 0.0 0.0 0.17006005284528358 0.0 -0.022244564500630545 0.085401672673735621 0.0 0.026068405551634199 0.11170102617667906 0.0 0.018847415041640003 0.057185920921452887 0.0 -0.0087826964640727173 0.079630907573166404 0.0 -0.070604742714330204 0.022211304043068515 0.0 -0.049027095097866763 -0.40586217315690809 0.0 -0.0073136833035443993 0.13635016014278481 0.0 0.0 0.0 0.0 0.0011602666822829316 -0.2652745926805346 0.0 0.00044819728815640586 0.10138795220283917 0.0 0.025787153207910807 0.11909236919583416 0.0 0.095528245688646735 -0.39588757042725387 0.0 0.066734789517846491 0.080494611620414297 0.0 0.0948815587226155 -0.31229524209460902 0.0 -0.013263652409802845 0.03176207038571896 0.0 -0.037325094163670608 0.09910437812110387 0.0 0.039644809033797926 0.020753642179596427 0.0 0.012546590387382595 0.039778395168169361 0.0 0.0037727566016875283 0.076645570240940264 0.0 0.036256795707131424 0.14241654747257423 0.0 -0.050404850459187744 0.0070106971151628755 0.0 0.025836570306272337 0.07659469125229143 0.0 0.010517976513549729 0.055771733206872467 0.0 0.089524720037763808 0.15126384162374837 0.0 -0.088155962566965604 -0.36002852784361089 0.0 0.039783425053671724 0.07988890998800946 0.0 0.016740992660283463 0.10463718677945456 0.0 -0.053345055959715199 0.1546907438072756 0.0 0.00099290153606345494 0.10316354835556363 0.0 -0.024546410868457019 0.17776383573373353 0.0 -0.010159598782775392 0.053254464616700921 0.0 0.48766404884269732 0.14492643990866255 0.0 </DataArray>
<DataArray Name="radii" format="ascii" type="Float32">1.2 1.2 1 1.2 1.2 1.2 1 1.2 1.2 1.2 1 1.2 1.2 1.2 1.2 1.2 1.2 1.2 1 1.2 1.2 1.2 1.2 1.2 1.2 1.2 1.2 1.2 1.2 1.2 1.2 1.2 1.2 1.2 1.2 1.2 1.2 1.2 1.2 1.2 1.2 1.2 1.2 1.2 1.2 1.2 1.2 </DataArray>
</PointData>
<CellData/>
</Piece>
</UnstructuredGrid>
</VTKFile>
