<?xml version="1.0" ?>
<VTKFile byte_order="LittleEndian" type="UnstructuredGrid" version="0.1">
<UnstructuredGrid>
<Piece NumberOfCells="0" NumberOfPoints="447">
<Points>
<DataArray NumberOfComponents="3" format="ascii" type="Float32">0 0 0 7.3290386639530105 1 2 19.372559573301519 4.4393008618576557 2 21.560576045836882 10.993593069664742 2 23.027475541139207 2.7616175744868259 2 26.454657036936478 3.679292093696354 2 37.42069209492206 4.0502606212728596 2 38.50508543683808 5.1197218351695257 2 45.505643968471993 1.4009624307537363 2 48.80384175536269 8.8900546495625505 2 52.788091349630953 10.03509607631587 2 63.116585530700476 1.3513225714708645 2 68.13644305194974 7.2661574229273569 2 71.108114980071932 6.4090308483668892 2 74.305892331580026 9.6605265596518333 2 76.789925042134527 2.3605670745501937 2 80.885176676908756 6.6097205945534281 2 93.554894840480557 9.0442831509721255 2 96.55238025219866 1.544084958132306 2 14.946782763506258 5.1416919101396861 2 20.841101429314392 9.7333579186975054 2 22.155852700543885 9.2567341492927824 2 27.002860488373788 5.2992976167781691 2 34.919152138573338 1.5151512570218264 2 45.539067079752712 4.7288262501435989 2 46.720842634183398 6.908224796108974 2 51.91003337440398 7.2910786797874128 2 59.977827359470517 13.215785222929709 2 68.927216483341439 5.3552990467614299 2 73.327830594947926 3.5055978558788992 2 72.781266186263537 6.9013666336402615 2 76.215593776510445 1 2 81.193785374161962 2.3781212881748433 2 94.433799936995939 14.048008016578841 2 95.119870576206708 7.6844663613060673 2 12.469679577425653 3.2606463819511649 2 24.001272448095364 4.6926428790544481 2 27.971331844088422 4.3657493629459232 2 39.252702637341677 9.2860754120246032 2 43.15454912066631 2.3572645603743165 2 61.193470150723549 3.5958699631474174 2 68.096958563539189 10.660216726202034 2 73.324628143612543 11.268461723165329 2 76.903883812765059 6.8808207696200361 2 79.952387728113635 6.1886497330579529 2 94.968323298875006 6.2298537469581747 2 93.857450695971394 1 2 12.854151082705068 1 2 22.365701473501922 4.6860785657400754 2 25.088769435690896 11.233803296189096 2 28.684679042836031 10.350060704235577 2 32.920709351152944 3.0488255168419935 2 44.795752839019791 10.308614055445975 2 50.093952531009123 8.0283393197787056 2 53.985951252116777 6.2420102573179364 2 60.251450656545984 10.819498955319053 2 68.494796980093909 1 2 73.742214600483379 1.5830621551812762 2 76.316555558361912 3.0790579903383457 2 81.413217745591439 3.6682097052696605 2 93.279250736578717 11.87839720425772 2 97.629433319931181 10.94748237373868 2 7.5029823998716951 3.6234043191723626 2 24.173339543548025 1.5055582760119961 2 25.08446554431276 1 2 36.890085102415554 6.6608297355897923 2 46.602202733127157 3.8392638867190096 2 64.607626087992173 1 2 65.777533974454897 7.7354686420089909 2 70.887969554849519 9.4225797707423951 2 73.581202188517281 8.5121712892816337 2 80.434478034703275 8.4621205801657471 2 93.077563400179173 5.9326138322272914 2 95.620776825085116 1.8300685032077404 2 12.179799798108983 5.3055955985997745 2 18.663850660052564 10.082252236325093 2 23.310368232717693 10.909738310061639 2 28.840388650432061 5.2502313038776895 2 35.866615518312159 1.6185977407009835 2 43.150000918230873 6.0804485329747822 2 47.485388370251528 4.6505034519875412 2 51.712898086785145 9.1790411712964097 2 61.972168497941603 10.610326401700178 2 70.599565129100142 4.69217062082339 2 69.266713595279626 1.0068711397218384 2 74.05673556906541 4.6580203065440244 2 81.64743434602687 1 2 94.271681954085636 10.654712537059858 2 96.407803037550195 10.009612285467947 2 10.441953601637326 1 2 25.425460189825436 6.5700992593493091 2 28.009377534453897 1 2 34.415940942765729 11.987356861597327 2 43.190106405674534 3.8625142697996506 2 59.916022493621469 1.4631300856924658 2 66.246764601898562 10.549663338078973 2 69.851551246713115 11.674291461086879 2 76.89125958701392 8.2328989657629386 2 78.139307298979347 6.4312174193248035 2 94.991968297979071 3.374914032544146 2 92.730597554607058 2.0129120009950947 2 14.209763857897237 2.9509243870094086 2 21.39342630960213 3.3611664059748687 2 26.570985762200547 7.2277724755308901 2 31.854587617635399 11.319461450974188 2 34.334636518277783 5.3924608043418276 2 41.378549380473316 8.8975474583946177 2 50.212123053967282 2.7581418458693738 2 52.991374120081701 7.9771787944916159 2 62.350078254144897 7.4153322941159825 2 68.336427032216321 3.1251222996715393 2 71.655959298020022 1.5162969164830946 2 74.515570545497468 7.3199778553450718 2 83.861848418451714 6.1633771316185815 2 91.107245316791833 10.600963025071547 2 96.519280315372484 13.96702195983111 2 19.761910813995542 6.8586830087521591 2 9.1543062828820325 1.3836227410822151 2 23.2127809718042 4.2609948374548612 2 24.5101489993644 2.820179930165879 2 36.412059469103255 2.9866261112171384 2 44.568203896261089 1.9272616096427437 2 61.523850638144836 1 2 68.088848591037689 5.8807003207288302 2 70.116458241589342 8.0221284107037043 2 75.935060907085429 11.251126987535597 2 82.261259725515174 7.8038197872464927 2 94.287713987362409 7.3656255655018326 2 98.369834673371884 1 2 15.607170244286134 6.9575568839666069 2 21.775679324690472 7.5053427965780068 2 22.756186650018396 6.0240752753057389 2 27.978614967745134 5.8333357754394273 2 33.053214773236014 1.0198904766286765 2 44.256117816296729 5.7249635404047758 2 46.520602103953507 9.9004759519221324 2 50.949437548685708 6.1389220646260467 2 61.37173132634463 11.870770069882166 2 68.775945042558163 4.5820756790600132 2 71.539581750238682 4.6702722432199693 2 71.878689546893696 5.9771867487089567 2 79.991371637811611 1.4157560457673943 2 93.101474467673867 14.635641223204408 2 94.956143212679933 9.5758530064046496 2 11.567741896785757 1 2 25.287592813941142 4.5228711844207599 2 29.278201747015832 2.5722348021892993 2 38.005049322374447 8.2515635562708116 2 41.566941085481893 1.9722960385185448 2 60.115616917093753 3.5344621387433528 2 68.160708175689365 8.4149040921256368 2 71.704852273066507 10.873128179614008 2 75.447879604704013 5.6899595611924552 2 79.369834742950104 4.3733645571628994 2 94.249990111688945 4.7985205064652936 2 93.118052328595013 1 2 14.059872033914209 1.9406249688970472 2 20.608197904040043 4.4325206529290355 2 27.397664777614057 9.7422528056786426 2 27.707616046229184 11.998288757932746 2 33.405939300734715 3.786893687929541 2 44.678109869649695 7.864448033026938 2 47.965675472037269 7.3411335515948384 2 55.063010911290789 4.3391427013493908 2 58.71005238818779 11.542496637528638 2 67.50730553013976 1 2 72.768778318413297 2.0392433966077044 2 76.69989470022864 4.2836919071320567 2 81.041744080818418 4.8026824684379639 2 91.56053304734391 12.330947690102873 2 98.634249674581739 12.423360779985343 2 9.439312070682325 3.7356778031409728 2 22.579649551520507 1 2 26.011068149781696 1 2 36.159067949352341 7.8446041062108689 2 46.612441028525573 2.4180206288812589 2 63.727543421166864 1 2 66.467508738291585 9.1937923465445284 2 69.55324310700054 9.0768145500956017 2 72.020265782070013 7.5781727034606821 2 80.007267398467746 7.7436202497717153 2 92.711988863328529 7.1321781638800221 2 94.542851320252822 1.4440963155731918 2 13.205088960561202 5.8151779085598996 2 18.455332080460344 7.508733038643518 2 23.768641376454823 9.0304594296259086 2 28.018501770163244 7.75759511189721 2 34.73450716015347 2.700768692963305 2 43.481724054621466 8.5916108105039086 2 48.359698911539532 5.5957710530507248 2 49.857958980974402 11.344785031377464 2 64.067909697979189 11.518252829442529 2 70.698012235591193 3.1327719298447456 2 69.567051168003218 2.4542346345975439 2 74.872880681479813 4.2967735909691784 2 82.896882657015283 1 2 93.255165481257819 10.169679953230451 2 96.121746113963269 12.13209011347279 2 10.622762320393877 3.627120117133205 2 23.976667844071912 7.2106440880763669 2 26.9767341622251 1.9786330302086399 2 36.903247743751116 10.363570826912039 2 44.316039783719383 3.1816046720631577 2 60.639462065743913 1 2 65.513478212968323 12.411702730848107 2 70.434579363663659 13.199560250557349 2 77.331596123183061 11.191987359299238 2 77.806959723752144 8.1862627782293096 2 95.513991864053352 4.3793032624557231 2 91.937570093536323 1.5857233819712364 2 15.198550743737155 3.2839238131640052 2 20.103707443214763 2.6984556963316595 2 25.559359969221195 9.4086565482407511 2 29.528636855500334 13.158140620357178 2 36.291336695103404 5.6948606594634734 2 40.798064626235309 10.279828338102329 2 50.267738624948962 4.5458826999288595 2 52.799985933232712 5.5497836928965025 2 62.754051760671196 9.1230404963505691 2 66.860581348379483 2.7645058329646464 2 70.977034548529275 1.0450956388264396 2 74.97439265306383 8.3000501194590388 2 82.285261437998585 5.2851975496298591 2 91.899186595450018 8.7714946576888444 2 98.878068296050813 13.950972851793564 2 19.362708718203674 3.2735719055886423 2 39.676140773892016 5.8476090972196895 2 20.793158762046655 6.1301481738629784 2 7.5376112917455256 2.2024939205257161 2 22.286991237205243 1.7863419277800197 2 26.500071850695768 4.5894898512088176 2 37.013115158183602 4.9444418542088586 2 46.223887073622414 1 2 48.746574957416563 10.410556453818941 2 53.784901933035499 9.3212908432272616 2 62.482428315061028 1 2 69.166842026534098 7.7235090854540305 2 70.64206315484185 7.2300597484979372 2 74.761169685021684 10.739467744152417 2 77.665628155406651 2.2784875551688168 2 81.739444058396188 6.9227734982515159 2 93.562009761359406 7.8213612269591826 2 96.867603493166726 1 2 13.917768106615451 6.5011394276045325 2 19.882630621028131 9.3220493044166179 2 22.98422578926667 8.3297314736161869 2 26.756390706848258 6.2485329886766294 2 33.508233767624652 2.2067176708130964 2 46.046570489036782 5.532679140614162 2 46.353572154446901 7.7333942223735317 2 51.105750058798542 7.865389182173403 2 60.97004206553359 14.065425266022082 2 69.874451233728124 6.2390784648428221 2 72.261536609239002 2.6442112011870678 2 73.467807327184772 5.5197853431872081 2 80.236777523227573 2.5701420870586484 2 94.241218254435623 12.670232097015255 2 95.624881953540353 8.8228119795416706 2 11.340745780775965 2.8603613551063587 2 23.943022836667712 5.5625698162179935 2 27.336064871984156 3.3847479768144226 2 38.363463702826039 10.54719939534146 2 43.094894725934601 1 2 62.228646423522072 2.4249210122109783 2 67.160591976777681 9.9220454236096511 2 73.358573332729321 12.848214567149819 2 75.868958883731565 6.8624395790978889 2 79.03642063867818 5.4032869301297559 2 95.94062123001757 5.9422035756254745 2 94.494550119326917 2.6057779678230188 2 13.091944101338598 2.3096917155516139 2 21.753139603626501 5.8932395645572546 2 25.916422481696301 12.560060406878117 2 30.097653455706578 10.222086800684608 2 31.828941732578912 3.1374427638006348 2 43.105833350138347 10.24630004889919 2 48.865170834297103 7.3240957784603866 2 54.503808695241432 5.3306998110466317 2 60.501180237411205 9.4453918620124142 2 68.476343145428629 2.3014630067441151 2 74.293169409418624 1 2 75.334043514210364 2.6170099894800916 2 80.404817317793615 3.5828286018911535 2 92.590468718130936 11.154057080876104 2 99.0 11.537721232135343 2 8.3495971372395985 2.8698450600266159 2 23.522510016002535 1 2 25.326806036236427 2.3603352503507482 2 38.180703676790543 6.2719758702182036 2 45.605468123183343 3.0721845697047674 2 65.97409429385344 2.4128764140718268 2 67.176934853064097 7.7308518750589972 2 72.52809707609299 9.865253083275455 2 72.548879348611692 8.6332292389791139 2 81.578405401034956 8.3078683358540371 2 94.233175081539372 5.8508690923502362 2 94.952523753574312 1 2 12.224511692751253 4.2184451715255076 2 18.558400104450854 8.7505594830303242 2 22.838954485211666 12.436650764089734 2 29.025360858713693 4.2692955669769521 2 36.574308793949442 1 2 42.796271781296973 4.9143649303020212 2 47.108410271361272 5.9036985718256592 2 50.278115596906787 9.5244226919410035 2 61.697577379064477 9.6087347591516767 2 70.142257852008143 5.3734630155849077 2 70.415931114268233 2.1642874287468645 2 73.079381765142301 4.2812818218734359 2 82.848751630775368 1.8420187155402019 2 94.892300977235095 11.77002201394451 2 95.458794787307824 10.677469760391006 2 10.408879309203739 2.2693827119943721 2 25.630433347558668 7.6150205070535328 2 26.993325083222341 1 2 34.068982206223126 10.643819552844597 2 42.185694476308626 3.3366053648722964 2 59.129368164361729 2.5708879786465983 2 66.802834899266301 11.747098198006835 2 70.433043183372277 10.461844714267402 2 76.23461041611975 9.7579754177922116 2 78.705650609143689 7.7303379699209973 2 95.490620061419364 2.7012643369292935 2 92.216709570373425 1 2 13.433556876267874 3.8292578125542542 2 20.926194083026616 2.5550052475283205 2 27.192488242508002 8.0955327770721688 2 30.67662225743231 11.443065195015352 2 35.041032369738254 6.5600006941901112 2 41.762765016110187 7.8222784202743174 2 49.339429179350539 2.617577630089762 2 53.225866198710939 6.7618681640636007 2 61.656531777259268 8.4912253437344773 2 67.789363120672007 3.7972363342413038 2 72.168084258472845 1 2 73.632725191830261 6.6870364984788804 2 84.239839305101995 4.9959640897894877 2 91.023792429886583 9.4631449845270339 2 95.654897173537066 13.378334965880278 2 8.7038744609773691 1 2 23.620187353831234 3.228377632497617 2 24.992406798483412 3.7642121119432632 2 35.87726482886135 3.9770004113634894 2 44.238648755303977 1 2 61.006104504602234 2.5566904531865955 2 66.170944220964202 5.8301881826981772 2 68.982738993967601 6.6394616120783807 2 75.320146515653178 12.612954560911591 2 82.815381058631843 6.7889048863020358 2 93.664953704006365 6.5791650371210846 2 99.0 1 2 15.181790753854372 6.0827844617674121 2 21.032930016923356 7.982036908848424 2 22.945726416878809 7.1661928159641688 2 28.16899390513229 6.6950898604937796 2 34.199268890637875 1 2 44.897872220176453 6.6469559374547753 2 47.58571306523281 9.095199480464645 2 51.569328715451071 4.7369021912568172 2 61.841932097044591 13.187949465878884 2 69.2601929838237 3.6032304871460181 2 71.457266818191798 3.1003840533195302 2 72.363264504180577 5.1729307165499172 2 80.573218739474029 1 2 91.739719076633463 14.497625724995622 2 94.412790682030518 8.8114946742195634 2 12.001960365219656 2.04139409700301 2 25.549895177786318 5.5261984418895675 2 28.56422555758909 3.3600505606095652 2 38.333006536773759 7.2766596894288362 2 42.27233553614591 1.0490447908908054 2 60.035608039388578 2.5508106136755173 2 68.083346693037186 9.2175194505173899 2 71.640471414272128 12.165405533461918 2 74.584019479454582 5.9454099984355002 2 80.203351618656797 4.8872837723773745 2 94.508642002245026 3.9981801929271583 2 93.718833259148084 2.1971510373511558 2 15.176785435403838 1 2 21.528093615192443 4.3281717852339483 2 26.462391289255152 9.0051784352603139 2 26.64052067531016 10.858988912447385 2 34.216544484821071 4.4610286178718832 2 45.774583838771939 8.6970680666131965 2 49.70779922779024 6.7646931836154778 2 53.04679483446504 4.533494937761593 2 59.26772820889812 12.422265453733063 2 66.711616509917846 1 2 73.175503333508175 1 2 76.254535978232838 5.2075381452589466 2 81.508866231807559 5.6415630317416978 2 92.666084152139817 13.073348085320104 2 97.439048934851286 12.702283506674979 2 9.3663380602798778 2.5994747050865703 2 22.162246125085026 2.7777593040620912 2 26.149554772397554 2.6279887153765258 2 36.846805767972562 8.8913323212603341 2 47.528319897892757 2.4954549305942781 2 64.634136305183759 1.9789906123080936 2 66.002903612114494 8.5853308382258895 2 69.140593599899148 10.195776826066316 2 71.303170573645716 8.5753124899532249 2 79.104851747110629 6.8272076022524848 2 91.335884595921556 7.8752285631243559 2 95.802478666298043 1 2 13.629993188808182 4.7783822536980534 2 19.90407053128882 8.0798773873461212 2 24.796970405151267 8.2261860581900557 2 28.486551913795573 8.9520704570592446 2 34.85110034876363 3.6302174865559587 2 42.982807640053323 7.4580074101348099 2 49.926464780566327 5.8552856257246821 2 51.348487675189844 10.912747394093676 2 62.907632448683536 11.658737488831649 2 72.077827687090618 3.7390361824014362 2 70.024570219648595 3.9046210752279205 2 75.54541151502039 3.8133680043806475 2 81.857160838553199 1.8588660583303844 2 92.039209044431061 10.069059137845958 2 96.720103802215505 11.117352866812109 2 10.971368573521046 4.4728517179400926 2 24.487120290541682 6.2926309410946963 2 27.843590350666219 2.5384724787383774 2 35.7901865530539 11.009013323311637 2 44.47592544654205 4.4160190422702463 2 61.535352018051178 1.7921169451725543 2 65.285597314861505 11.05877415167828 2 71.285366017697569 14.551486318265404 2 77.583651766228371 9.8087123670027481 2 78.699191556920042 9.0116501305436501 2 95.310940962613344 5.2198020776802396 2 91.712266462872805 2.6722460784825217 2 14.830569697126702 4.2569415321741557 2 18.805669684180909 2.3715595982369053 2 24.444285049606382 9.997822088936525 2 29.37766156335595 11.799557388982734 2 35.380437272971854 5.4235175565851428 2 41.176533293084894 11.831909687286892 2 49.153277366701595 4.9582626349571584 2 51.820559652770001 5.845366298489969 2 63.580192676148123 9.4000251814266402 2 67.606004445570804 2.0975911248631554 2 70.171759700617201 1 2 75.913924048533701 8.5399623970412719 2 83.246308011644985 5.6627575461056008 2 92.742681111730732 8.7617331458699201 2 97.511904788348474 14.747995860476289 2 </DataArray>
</Points>
<Cells>
<DataArray Name="connectivity" format="ascii" type="Int32">0</DataArray>
<DataArray Name="offsets" format="ascii" type="Int32">0</DataArray>
<DataArray Name="types" format="ascii" type="UInt8">1</DataArray>
</Cells>
<PointData>