<?xml version="1.0" ?>
<VTKFile byte_order="LittleEndian" type="UnstructuredGrid" version="0.1">
<UnstructuredGrid>
<Piece NumberOfCells="0" NumberOfPoints="35">
<Points>
<DataArray NumberOfComponents="3" format="ascii" type="Float32">0 0 0 10.758000366602317 1.5999999999999999 2 18.570648889691192 3.777504536295984 2 22.21777444469647 6.1626877281837791 2 24.478246593786018 1.5999999999999999 2 27.393080922329361 1.5999999999999999 2 34.423310285569222 4.9627781169811742 2 36.775726156758225 3.5897251859356012 2 45.3616784276823 1.5999999999999999 2 49.093695106607868 5.4684322573319655 2 53.957024240164195 6.3260451762104344 2 62.516244134303889 1.5999999999999999 2 67.215645079355099 5.1317869618927014 2 69.717831820910149 4.2297586748218094 2 75.347760579124468 5.0801789051171751 2 76.33382746357951 2.8703833827619416 2 81.402739799178576 4.2256079586023292 2 93.465051795166502 3.9327125198757655 2 94.958839341501644 1.5999999999999999 2 13.864232090662808 1.5999999999999999 2 22.520465034919962 3.8234744447321498 2 25.512339394644382 4.5728741289196462 2 28.498279561741324 4.4661424231368958 2 33.158632150255698 2.0057006887200215 2 44.764258932175096 4.706721635172249 2 47.645482541342609 3.5205935453532464 2 54.743521549436871 4.0283146240369874 2 62.442643766161808 5.9889617844323384 2 67.94447430427762 1.5999999999999999 2 70.928094401405403 1.5999999999999999 2 72.58159441449213 4.1527864160446493 2 75.715514153968485 1 2 82.489650382264216 1.5999999999999999 2 92.874911425055572 6.9116051775175702 2 95.920837286079617 5.1138147657451478 2 </DataArray>
</Points>
<Cells>
<DataArray Name="connectivity" format="ascii" type="Int32">0</DataArray>
<DataArray Name="offsets" format="ascii" type="Int32">0</DataArray>
<DataArray Name="types" format="ascii" type="UInt8">1</DataArray>
</Cells>
<PointData>
<DataArray Name="Points" NumberOfComponents="3" format="ascii" type="Float32">0 0 0 10.758000366602317 1.5999999999999999 2 18.570648889691192 3.777504536295984 2 22.21777444469647 6.1626877281837791 2 24.478246593786018 1.5999999999999999 2 27.393080922329361 1.5999999999999999 2 34.423310285569222 4.9627781169811742 2 36.775726156758225 3.5897251859356012 2 45.3616784276823 1.5999999999999999 2 49.093695106607868 5.4684322573319655 2 53.957024240164195 6.3260451762104344 2 62.516244134303889 1.5999999999999999 2 67.215645079355099 5.1317869618927014 2 69.717831820910149 4.2297586748218094 2 75.347760579124468 5.0801789051171751 2 76.33382746357951 2.8703833827619416 2 81.402739799178576 4.2256079586023292 2 93.465051795166502 3.9327125198757655 2 94.958839341501644 1.5999999999999999 2 13.864232090662808 1.5999999999999999 2 22.520465034919962 3.8234744447321498 2 25.512339394644382 4.5728741289196462 2 28.498279561741324 4.4661424231368958 2 33.158632150255698 2.0057006887200215 2 44.764258932175096 4.706721635172249 2 47.645482541342609 3.5205935453532464 2 54.743521549436871 4.0283146240369874 2 62.442643766161808 5.9889617844323384 2 67.94447430427762 1.5999999999999999 2 70.928094401405403 1.5999999999999999 2 72.58159441449213 4.1527864160446493 2 75.715514153968485 1 2 82.489650382264216 1.5999999999999999 2 92.874911425055572 6.9116051775175702 2 95.920837286079617 5.1138147657451478 2 </DataArray>
<DataArray Name="forces" NumberOfComponents="3" format="ascii" type="Float32">0 0 0 -0.098302229537738928 0.0 0.0 0.093591276497016429 0.059615575910119942 0.0 -0.033798587009898275 0.24794082118685778 0.0 -0.14959931483018801 -0.25006891037497986 0.0 -0.064537209275711035 -0.13143478226994038 0.0 0.11355623612965746 0.059471060379616192 0.0 0.096915587702374142 0.031000031592891324 0.0 0.0045369057924750378 -0.26944253230771342 0.0 0.10648306404598976 0.14549901074374993 0.0 -0.060378089273838108 0.17330753247380315 0.0 -0.026768312572938713 -0.24385641381185713 0.0 -0.050494173830023886 0.14130537691863773 0.0 0.064321359383499976 0.14013639681274404 0.0 0.20352624107646067 0.26427379540205925 0.0 -0.079007260331168713 0.033030651642114113 0.0 -0.081374063644187686 0.19805614678067099 0.0 -0.065745472552603268 0.062380367196054887 0.0 0.15795867012464659 -0.34845820253714477 0.0 -0.067121595084994184 -0.11745599627571419 0.0 -0.13480722368063214 0.19918814908765667 0.0 -0.085978298506591194 0.098145276707473347 0.0 -0.015591345623976738 0.10988324404965018 0.0 0.048374388038575307 0.055037859506833126 0.0 -0.086935035347385961 0.077000972122177366 0.0 -0.025408838159750563 0.20527274712644358 0.0 -0.11887950647917549 0.091583128016615958 0.0 -0.040836964587686403 0.4184778260713955 0.0 0.041226735973118378 -0.009155355483393593 0.0 0.020338197833211988 -0.40829455530682313 0.0 0.15598342152813705 0.043261714144109578 0.0 -0.010500956339548145 -0.10543682265417922 0.0 -0.08610165361705846 -0.29933419138222583 0.0 -0.013122882675250087 0.17320180936367524 0.0 -0.10874407820112081 0.40040059241572978 0.0 </DataArray>
<DataArray Name="radii" format="ascii" type="Float32">0 1.5999999999999999 1.2 1 1.5999999999999999 1.5999999999999999 1.5999999999999999 1.2 1.5999999999999999 1 1 1.5999999999999999 1.5999999999999999 1.5999999999999999 1.5999999999999999 1 1.5999999999999999 1.5999999999999999 1.5999999999999999 1.5999999999999999 1.5999999999999999 1.5999999999999999 1.5999999999999999 1.5999999999999999 1.5999999999999999 1.5999999999999999 1.5999999999999999 1.5999999999999999 1.5999999999999999 1.5999999999999999 1.5999999999999999 1 1.5999999999999999 1.5999999999999999 1.5999999999999999 </DataArray>
</PointData>
<CellData/>
</Piece>
</UnstructuredGrid>
</VTKFile>
