<?xml version="1.0" ?>
<VTKFile byte_order="LittleEndian" type="UnstructuredGrid" version="0.1">
<UnstructuredGrid>
<Piece NumberOfCells="0" NumberOfPoints="32">
<Points>
<DataArray NumberOfComponents="3" format="ascii" type="Float32">12.319635451398671 5.9391763471528636 2 23.514657986321563 1 2 45.652125021800813 4.4317542186580292 2 75.585194884683816 1 2 11.118637917548519 4.5037457800242535 2 21.34567776585131 3.4470413474862429 2 42.190061430826425 4.4486520247716284 2 77.935785749519283 5.8090644389760939 2 16.521474210832782 3.8663120711796939 2 26.051770139019172 2.0877740389154473 2 43.631862002044748 5.7806001901217305 2 77.442440810994853 1 2 12.083042712925041 1 2 23.649109370471688 6.3715329508187324 2 44.178230252381859 1 2 76.207682418554825 4.824419667502438 2 14.100241738675674 6.7137469641887773 2 25.146815632035185 1 2 44.753776252043579 2.7706679636544389 2 73.544702211542102 2.5192784499901215 2 9.3290894527950474 3.9091436434216855 2 23.2304550703163 2.8891412166217845 2 43.027941244954064 2.7471279803049922 2 79.819483006838837 6.4079522524466528 2 15.085355930917801 5.0432134924323044 2 27.459156901306738 1 2 45.506212769577409 6.3812418187054973 2 76.679887038665996 2.5571849846970647 2 11.068782441145219 2.6563600496962612 2 25.471812648196302 5.690651095320562 2 45.813334263661481 1 2 75.125978931302697 3.2701126711660482 2 </DataArray>
</Points>
<Cells>
<DataArray Name="connectivity" format="ascii" type="Int32">0</DataArray>
<DataArray Name="offsets" format="ascii" type="Int32">0</DataArray>
<DataArray Name="types" format="ascii" type="UInt8">1</DataArray>
</Cells>
<PointData>
<DataArray Name="Points" NumberOfComponents="3" format="ascii" type="Float32">12.319635451398671 5.9391763471528636 2 23.514657986321563 1 2 45.652125021800813 4.4317542186580292 2 75.585194884683816 1 2 11.118637917548519 4.5037457800242535 2 21.34567776585131 3.4470413474862429 2 42.190061430826425 4.4486520247716284 2 77.935785749519283 5.8090644389760939 2 16.521474210832782 3.8663120711796939 2 26.051770139019172 2.0877740389154473 2 43.631862002044748 5.7806001901217305 2 77.442440810994853 1 2 12.083042712925041 1 2 23.649109370471688 6.3715329508187324 2 44.178230252381859 1 2 76.207682418554825 4.824419667502438 2 14.100241738675674 6.7137469641887773 2 25.146815632035185 1 2 44.753776252043579 2.7706679636544389 2 73.544702211542102 2.5192784499901215 2 9.3290894527950474 3.9091436434216855 2 23.2304550703163 2.8891412166217845 2 43.027941244954064 2.7471279803049922 2 79.819483006838837 6.4079522524466528 2 15.085355930917801 5.0432134924323044 2 27.459156901306738 1 2 45.506212769577409 6.3812418187054973 2 76.679887038665996 2.5571849846970647 2 11.068782441145219 2.6563600496962612 2 25.471812648196302 5.690651095320562 2 45.813334263661481 1 2 75.125978931302697 3.2701126711660482 2 </DataArray>
<DataArray Name="forces" NumberOfComponents="3" format="ascii" type="Float32">-0.0078202614017447852 0.1364059552063277 0.0 -0.044096883742404766 -0.2039171957006925 0.0 -0.031832901364873843 0.075368138673975252 0.0 0.088175117411326026 -0.073165702884178285 0.0 0.030362953556373945 0.09162572078009168 0.0 0.066134073833177792 0.085112978745786105 0.0 -0.064184248603172858 0.084613014419935989 0.0 -0.0072662840848749417 0.11843299617546196 0.0 0.0023240982244437658 0.081471831564485148 0.0 -0.028979604539190851 0.12912766166235945 0.0 -0.0040656433307187725 0.015395692564624537 0.0 0.10325840944647122 -0.42399879339843821 0.0 -0.01261635447097615 -0.22877025808512041 0.0 0.040865926962330559 0.14952934297771184 0.0 0.0086902457182501669 -0.1290162483555006 0.0 -0.044958462455098325 0.13376808563222425 0.0 0.023851801121945411 0.074861031425824495 0.0 -0.0063573074441009569 -0.45139661163371331 0.0 0.028069369279522388 0.047872140660171279 0.0 -0.036129046856310576 0.10130264831800011 0.0 0.010960319944181672 0.10099295090951443 0.0 0.095967424027715367 0.0075121628263208895 0.0 -0.0078703592932280741 0.098953126168747768 0.0 0.027897922960589364 0.046153055903706657 0.0 0.015828239148032337 0.079310279935386946 0.0 -0.035175905565126231 -0.13787103940185128 0.0 -0.022049294116228864 0.079576550685490438 0.0 0.02337271898920773 0.069249100971368202 0.0 -0.018603682576238512 0.081776173440105682 0.0 0.0012341619168594817 0.11413235164953459 0.0 0.011920907748173865 -0.15350836833835116 0.0 -0.000605578665525075 0.072778266551797421 0.0 </DataArray>
<DataArray Name="radii" format="ascii" type="Float32">1 1 1 1 1 1 1 1 1 1 1 1 1 1 1 1 1 1 1 1 1 1 1 1 1 1 1 1 1 1 1 1 </DataArray>
</PointData>
<CellData/>
</Piece>
</UnstructuredGrid>
</VTKFile>
