<?xml version="1.0" ?>
<VTKFile byte_order="LittleEndian" type="UnstructuredGrid" version="0.1">
<UnstructuredGrid>
<Piece NumberOfCells="0" NumberOfPoints="117">
<Points>
<DataArray NumberOfComponents="3" format="ascii" type="Float32">0 0 0 8.340658834058857 1.5999999999999999 2 19.813212685439378 4.6020507249591001 2 21.697135350967951 9.3368388833661324 2 23.11460675036291 3.2382619802414352 2 26.294790393996809 2.9158134202995538 2 36.485578359545407 3.8172410429729027 2 38.258627865858841 4.9325088120429745 2 45.46311588925866 1.5999999999999999 2 48.788212278442735 7.7787548291343862 2 53.45896336711747 8.6255406313970173 2 62.389808438002845 1.5999999999999999 2 68.059019406812126 6.3589259530252651 2 70.610318284341133 6.0542012147834985 2 74.821233350650587 9.1153485967713141 2 76.962060856673716 2.414123833645494 2 82.159289925993448 6.0025968716925684 2 93.625900938356864 7.8433625440258634 2 96.746004026560556 1.5999999999999999 2 14.697771147664664 5.5112063574616679 2 20.832826961650625 7.382126368221873 2 22.89618123097819 7.0272634700851642 2 26.888177823577042 4.8669236502980739 2 33.729120471646098 1.5999999999999999 2 45.513680002046151 4.8709006313402989 2 46.779824070485887 7.0768921071822701 2 52.068724080049464 5.9689140028397034 2 61.354881689924561 11.845972405416848 2 68.543458827747571 4.8221188641841248 2 71.731950000191603 3.501246580187336 2 72.375333276040621 5.5245910265271503 2 76.568059223484084 1 2 81.098470643118446 1.5999999999999999 2 94.31824662323956 12.373233362947534 2 95.412285371728657 7.1505784196131854 2 11.852010398801784 2.915125657601906 2 24.760997781750632 4.2794492328004008 2 28.668734726241425 3.1869252241225738 2 37.937871159069665 8.3409313552886175 2 43.06917133472448 1.5999999999999999 2 61.088089449132688 2.9499100429904939 2 67.816978616893437 9.0666416032527053 2 72.257282992988976 10.088467942309034 2 76.592976895140794 5.6234589749525696 2 79.969467066877598 5.044420858556065 2 94.786549444042933 5.222068721541727 2 93.706608537551347 1.5999999999999999 2 13.336259998083481 1.5999999999999999 2 22.099863613385036 4.7595772406835808 2 26.055550860670778 9.6318488639962236 2 28.295500731682395 9.2017190393650825 2 32.568852638293222 3.4962271733254107 2 44.817956843519063 8.614199551002919 2 50.002088851087365 6.1035565652044124 2 54.608719331735138 4.7827190156431847 2 60.198567359554701 9.3806047622060849 2 67.726447948666333 1.5999999999999999 2 73.045075087120409 1.5999999999999999 2 75.903939794339067 3.5122038491255307 2 81.356784416498556 3.8066112723373355 2 92.316557453963455 10.695500453809837 2 98.4 10.169309437526572 2 9.2134130969641888 3.2878383077973834 2 23.580974223102835 1.5999999999999999 2 25.483345233443373 1.5999999999999999 2 36.459406289971014 6.3433763904280944 2 46.741251944249662 3.1037477117692189 2 64.212081123659061 1.5999999999999999 2 66.481285665124133 7.2347421259717706 2 69.950589704210202 7.8092579797219113 2 72.609066250056514 7.725401415878272 2 81.001843211427172 7.7650453419868271 2 93.30773707286663 5.8800791658178788 2 95.379220022285466 1.5999999999999999 2 12.738293417660882 4.4885461859571878 2 18.956122753993981 8.0830764007340203 2 23.88599029902808 9.1598799676914417 2 28.613941719045172 5.2137218458383936 2 35.046170360519831 2.3239218653201084 2 43.447384609474739 6.0165289477937112 2 48.14489954390789 5.0635196136854281 2 51.108857332285126 8.6898445450091 2 62.770778973797853 9.5856575479041126 2 70.017632797261641 3.9081299219270926 2 69.749244893008282 1.5999999999999999 2 73.887482240326861 4.2552097544057581 2 82.776440007370638 1.5999999999999999 2 94.329646726274859 9.7164705683952928 2 96.152092489716622 9.5347577574931126 2 10.743608149669482 1.5999999999999999 2 24.582893270234877 6.1625902293796795 2 27.806549576829735 1.5999999999999999 2 35.067173054394388 9.7812654642968369 2 43.669125257549183 3.5063606028941683 2 60.353451443237404 1.5999999999999999 2 65.679486332279922 9.9334181769172414 2 69.862670187604607 10.391471230246582 2 76.944978656252729 8.2774443125951933 2 78.888724515378726 6.7565974021412467 2 94.956840620865776 3.3012362499554651 2 92.341996242173408 1.5999999999999999 2 14.793286208398881 3.0763087001923033 2 20.630061019811965 2.9221563125643355 2 26.596864432118256 7.0677985548358002 2 30.566033723787125 10.355249187144636 2 34.42307403623176 4.7509801591899681 2 41.837238969319138 8.2636461301643305 2 50.398846265930317 3.6096088822916816 2 53.860002807050599 6.5465037055110962 2 62.163941380385474 7.3528191837639154 2 68.186160468977079 2.8786413181763084 2 71.375713422158555 1.5999999999999999 2 74.740872039059497 6.3752382061818871 2 83.825462261022324 5.4162567600794773 2 91.697849263147106 8.4697705820085556 2 96.967837278376834 12.073649412697391 2 20.562419255285388 5.6430314709750569 2 </DataArray>
</Points>
<Cells>
<DataArray Name="connectivity" format="ascii" type="Int32">0</DataArray>
<DataArray Name="offsets" format="ascii" type="Int32">0</DataArray>
<DataArray Name="types" format="ascii" type="UInt8">1</DataArray>
</Cells>
<PointData>
<DataArray Name="Points" NumberOfComponents="3" format="ascii" type="Float32">0 0 0 8.340658834058857 1.5999999999999999 2 19.813212685439378 4.6020507249591001 2 21.697135350967951 9.3368388833661324 2 23.11460675036291 3.2382619802414352 2 26.294790393996809 2.9158134202995538 2 36.485578359545407 3.8172410429729027 2 38.258627865858841 4.9325088120429745 2 45.46311588925866 1.5999999999999999 2 48.788212278442735 7.7787548291343862 2 53.45896336711747 8.6255406313970173 2 62.389808438002845 1.5999999999999999 2 68.059019406812126 6.3589259530252651 2 70.610318284341133 6.0542012147834985 2 74.821233350650587 9.1153485967713141 2 76.962060856673716 2.414123833645494 2 82.159289925993448 6.0025968716925684 2 93.625900938356864 7.8433625440258634 2 96.746004026560556 1.5999999999999999 2 14.697771147664664 5.5112063574616679 2 20.832826961650625 7.382126368221873 2 22.89618123097819 7.0272634700851642 2 26.888177823577042 4.8669236502980739 2 33.729120471646098 1.5999999999999999 2 45.513680002046151 4.8709006313402989 2 46.779824070485887 7.0768921071822701 2 52.068724080049464 5.9689140028397034 2 61.354881689924561 11.845972405416848 2 68.543458827747571 4.8221188641841248 2 71.731950000191603 3.501246580187336 2 72.375333276040621 5.5245910265271503 2 76.568059223484084 1 2 81.098470643118446 1.5999999999999999 2 94.31824662323956 12.373233362947534 2 95.412285371728657 7.1505784196131854 2 11.852010398801784 2.915125657601906 2 24.760997781750632 4.2794492328004008 2 28.668734726241425 3.1869252241225738 2 37.937871159069665 8.3409313552886175 2 43.06917133472448 1.5999999999999999 2 61.088089449132688 2.9499100429904939 2 67.816978616893437 9.0666416032527053 2 72.257282992988976 10.088467942309034 2 76.592976895140794 5.6234589749525696 2 79.969467066877598 5.044420858556065 2 94.786549444042933 5.222068721541727 2 93.706608537551347 1.5999999999999999 2 13.336259998083481 1.5999999999999999 2 22.099863613385036 4.7595772406835808 2 26.055550860670778 9.6318488639962236 2 28.295500731682395 9.2017190393650825 2 32.568852638293222 3.4962271733254107 2 44.817956843519063 8.614199551002919 2 50.002088851087365 6.1035565652044124 2 54.608719331735138 4.7827190156431847 2 60.198567359554701 9.3806047622060849 2 67.726447948666333 1.5999999999999999 2 73.045075087120409 1.5999999999999999 2 75.903939794339067 3.5122038491255307 2 81.356784416498556 3.8066112723373355 2 92.316557453963455 10.695500453809837 2 98.4 10.169309437526572 2 9.2134130969641888 3.2878383077973834 2 23.580974223102835 1.5999999999999999 2 25.483345233443373 1.5999999999999999 2 36.459406289971014 6.3433763904280944 2 46.741251944249662 3.1037477117692189 2 64.212081123659061 1.5999999999999999 2 66.481285665124133 7.2347421259717706 2 69.950589704210202 7.8092579797219113 2 72.609066250056514 7.725401415878272 2 81.001843211427172 7.7650453419868271 2 93.30773707286663 5.8800791658178788 2 95.379220022285466 1.5999999999999999 2 12.738293417660882 4.4885461859571878 2 18.956122753993981 8.0830764007340203 2 23.88599029902808 9.1598799676914417 2 28.613941719045172 5.2137218458383936 2 35.046170360519831 2.3239218653201084 2 43.447384609474739 6.0165289477937112 2 48.14489954390789 5.0635196136854281 2 51.108857332285126 8.6898445450091 2 62.770778973797853 9.5856575479041126 2 70.017632797261641 3.9081299219270926 2 69.749244893008282 1.5999999999999999 2 73.887482240326861 4.2552097544057581 2 82.776440007370638 1.5999999999999999 2 94.329646726274859 9.7164705683952928 2 96.152092489716622 9.5347577574931126 2 10.743608149669482 1.5999999999999999 2 24.582893270234877 6.1625902293796795 2 27.806549576829735 1.5999999999999999 2 35.067173054394388 9.7812654642968369 2 43.669125257549183 3.5063606028941683 2 60.353451443237404 1.5999999999999999 2 65.679486332279922 9.9334181769172414 2 69.862670187604607 10.391471230246582 2 76.944978656252729 8.2774443125951933 2 78.888724515378726 6.7565974021412467 2 94.956840620865776 3.3012362499554651 2 92.341996242173408 1.5999999999999999 2 14.793286208398881 3.0763087001923033 2 20.630061019811965 2.9221563125643355 2 26.596864432118256 7.0677985548358002 2 30.566033723787125 10.355249187144636 2 34.42307403623176 4.7509801591899681 2 41.837238969319138 8.2636461301643305 2 50.398846265930317 3.6096088822916816 2 53.860002807050599 6.5465037055110962 2 62.163941380385474 7.3528191837639154 2 68.186160468977079 2.8786413181763084 2 71.375713422158555 1.5999999999999999 2 74.740872039059497 6.3752382061818871 2 83.825462261022324 5.4162567600794773 2 91.697849263147106 8.4697705820085556 2 96.967837278376834 12.073649412697391 2 20.562419255285388 5.6430314709750569 2 </DataArray>
<DataArray Name="forces" NumberOfComponents="3" format="ascii" type="Float32">0 0 0 -0.1975863417547723 -1.2962502849983759 0.0 -0.079708805607766609 -0.14791056264384839 0.0 -0.21462670204417783 0.4633696669249307 0.0 -0.030189503607269907 0.28502993869224391 0.0 -0.15421213673358947 0.31081897528870572 0.0 0.23740486048217613 0.31762282729020147 0.0 0.22473273941426936 0.18291093383570145 0.0 -0.16053992944336037 -1.2763293841274681 0.0 0.037447734473488287 0.5487446420005121 0.0 -0.10720058281672036 0.5670999373117922 0.0 0.091459179711231631 -2.3072132186097889 0.0 0.2023023585266418 0.45129161151280528 0.0 0.11252381721329885 0.41934945765103615 0.0 0.080961444141944644 0.95325111675129315 0.0 0.0099076319543162095 -0.10336313144197057 0.0 -0.2814105043914823 0.54725620824288346 0.0 0.0058690144611845962 0.68039614931924763 0.0 0.047046955908343555 -2.3262362175636015 0.0 0.1093967609903248 0.33880396325270368 0.0 -0.15022012552176967 0.44562069916626312 0.0 -0.16339475300888662 0.38861354627436573 0.0 -0.044580076626064169 0.36539188773903131 0.0 0.098117516945326777 -1.6454446048399132 0.0 -0.024048796246810888 0.37908240640081053 0.0 0.010535630620823577 0.6187160836986455 0.0 -0.25819646394679346 0.37142360646866523 0.0 -0.28629032270068328 0.88527572299327262 0.0 0.12975802441931442 0.37626397578727011 0.0 0.26938905285107079 0.32938758989772587 0.0 0.22209903732136227 0.40519744245227063 0.0 0.0089978692663241766 -0.8035338990267904 0.0 -0.18045152673294312 -1.5697544955688616 0.0 -0.083869494359047003 0.99481412897839228 0.0 -0.04472498615578821 0.62818664093159082 0.0 -0.034028236853098193 0.2450552261112639 0.0 -0.14555181247639964 0.44667079475977456 0.0 0.098191882046794632 0.31215047705251076 0.0 0.42952310200434618 0.57996079988310989 0.0 -0.23200773669002606 -1.5587285374426938 0.0 -0.0017179821933825945 0.32104357620382573 0.0 0.10053706456022626 0.5911446836671419 0.0 0.24128066997528508 0.87396282200762021 0.0 0.14382845593822391 0.25634437074346816 0.0 -0.20074025847261223 0.37169921439570897 0.0 -0.041245634008308052 0.52785526442715447 0.0 -0.00096752928630666757 -2.2901392133652512 0.0 0.016739084132318172 -1.7405036705031312 0.0 -0.14526962100327789 0.31381342310457422 0.0 -0.065531269216545701 0.95356480449412206 0.0 0.086741875529334767 0.73845631215327501 0.0 0.23523344798599022 0.33065774537358827 0.0 -0.23247158704392226 0.70202750793420765 0.0 -0.13476118515163332 0.47666305418365928 0.0 -0.24600344516422312 0.34419875369072273 0.0 -0.11586594711634216 0.72214758361912446 0.0 0.084604019153706522 -2.3024712252138158 0.0 0.094123863480560788 -1.8974102701094984 0.0 0.11325622312355953 0.24242050014024891 0.0 -0.33504366075588654 0.24934778819952769 0.0 -0.050877629786396206 0.64837875838350212 0.0 1.3664649348226041 0.64779023985560535 0.0 -0.25058411607112963 0.35889556362465408 0.0 -0.1781211506421827 -1.5929991858105421 0.0 -0.07663828828803565 -2.0146025954871716 0.0 0.34690825095543176 0.43833941153360106 0.0 -0.064805897089379436 0.19914284331248572 0.0 0.027232876406375284 -2.3358838943771101 0.0 0.12215452570441604 0.39788230965656918 0.0 0.28982582017440872 0.76914516355314155 0.0 0.15019609775543263 0.59494266372342075 0.0 -0.30678642043191923 0.65129508101986711 0.0 -0.099723618053213892 0.5225166702952655 0.0 -0.0033717430123537673 -2.4415253500487308 0.0 -0.10138002642344091 0.39383833755936648 0.0 -0.11985885346905778 0.68627878081888116 0.0 -0.2303929580619172 0.66122528761415356 0.0 -0.10821111279728546 0.51605712133212467 0.0 0.41454772721212785 -0.14163173084994707 0.0 -0.10952485616734536 0.56005192083096955 0.0 -0.060117438182919147 0.29416865951712223 0.0 -0.10689766839553921 0.71546804429058741 0.0 -0.0011263396079109755 0.73391605718839181 0.0 0.13624997495556657 0.24437932239498278 0.0 0.089132249305460043 -1.9497795394639961 0.0 0.31653005129547512 0.31100422915071868 0.0 -0.16040378033132233 -1.9310583590445707 0.0 0.032034174265952398 0.80425008598157399 0.0 0.012369475192527318 0.90130471736795847 0.0 -0.14604037951797355 -1.8268695634813561 0.0 -0.024552185548922467 0.62679388901210453 0.0 0.024980607700979762 -2.0237173493597669 0.0 0.23728065528850864 0.72552727220379953 0.0 -0.14156794287045696 0.36487307963490356 0.0 0.12461812134788146 -2.2333503067069054 0.0 -0.0053364248775734091 0.6871143475759911 0.0 0.13441993919282205 0.94220949974693469 0.0 -0.075188255047913405 0.42109449111839548 0.0 -0.11676258258201688 0.45592284261103694 0.0 -0.19622936848624928 0.34587194154042694 0.0 0.0095549562661632059 -2.1484132909530338 0.0 0.12218137499691667 0.27646452686826367 0.0 -0.14035816501804466 0.17340252359093611 0.0 -0.047323203182886742 0.7268545741453234 0.0 0.1719126516069221 0.89860370175958215 0.0 0.21561770877295561 0.19091150902829668 0.0 -0.4398413533415394 0.45611309109655684 0.0 -0.13443271228993661 0.14239846228827294 0.0 -0.23610796671017337 0.54941621015055664 0.0 -0.13712477817949054 0.57597975042084726 0.0 -0.054933284035827638 0.29181259143704397 0.0 0.078040454037674678 -1.7068234982647636 0.0 0.17870430056763639 0.63246573518777738 0.0 -0.23873120659231944 0.50802746624658068 0.0 -0.062271356981622117 0.55587678987852751 0.0 0.20428427501337007 1.1134985708833267 0.0 -0.090668224581376633 0.1989893850581762 0.0 </DataArray>
<DataArray Name="radii" format="ascii" type="Float32">0 1.5999999999999999 1 1 1.5999999999999999 1.5999999999999999 1.5999999999999999 1.2 1.5999999999999999 1 1 1.5999999999999999 1.5999999999999999 1.5999999999999999 1.5999999999999999 1 1.5999999999999999 1.5999999999999999 1.5999999999999999 1.5999999999999999 1.5999999999999999 1.5999999999999999 1.5999999999999999 1.5999999999999999 1.5999999999999999 1.5999999999999999 1.5999999999999999 1.5999999999999999 1.5999999999999999 1.5999999999999999 1.5999999999999999 1 1.5999999999999999 1.5999999999999999 1.5999999999999999 1.5999999999999999 1.5999999999999999 1.5999999999999999 1.5999999999999999 1.5999999999999999 1.5999999999999999 1.5999999999999999 1.5999999999999999 1.5999999999999999 1.5999999999999999 1.5999999999999999 1.5999999999999999 1.5999999999999999 1.5999999999999999 1.5999999999999999 1.5999999999999999 1.5999999999999999 1.5999999999999999 1.5999999999999999 1.5999999999999999 1.5999999999999999 1.5999999999999999 1.5999999999999999 1.5999999999999999 1.5999999999999999 1.5999999999999999 1.5999999999999999 1.5999999999999999 1.5999999999999999 1.5999999999999999 1.5999999999999999 1.5999999999999999 1.5999999999999999 1.5999999999999999 1.5999999999999999 1.5999999999999999 1.5999999999999999 1.5999999999999999 1.5999999999999999 1.5999999999999999 1.5999999999999999 1.5999999999999999 1.5999999999999999 1.5999999999999999 1.5999999999999999 1.5999999999999999 1.5999999999999999 1.5999999999999999 1.5999999999999999 1.5999999999999999 1.5999999999999999 1.5999999999999999 1.5999999999999999 1.5999999999999999 1.5999999999999999 1.5999999999999999 1.5999999999999999 1.5999999999999999 1.5999999999999999 1.5999999999999999 1.5999999999999999 1.5999999999999999 1.5999999999999999 1.5999999999999999 1.5999999999999999 1.5999999999999999 1.5999999999999999 1.5999999999999999 1.5999999999999999 1.5999999999999999 1.5999999999999999 1.5999999999999999 1.5999999999999999 1.5999999999999999 1.5999999999999999 1.5999999999999999 1.5999999999999999 1.5999999999999999 1.5999999999999999 1.5999999999999999 1.5999999999999999 1 </DataArray>
</PointData>
<CellData/>
</Piece>
</UnstructuredGrid>
</VTKFile>
