<?xml version="1.0" ?>
<VTKFile byte_order="LittleEndian" type="UnstructuredGrid" version="0.1">
<UnstructuredGrid>
<Piece NumberOfCells="0" NumberOfPoints="225">
<Points>
<DataArray NumberOfComponents="3" format="ascii" type="Float32">0 0 0 8.1863575380266091 1.1497814280230372 2 19.712635963000423 4.1655442471574124 2 21.846776321555865 9.5549777238599951 2 23.00789863951486 2.8345434951238593 2 26.611430877732623 3.3552580554235116 2 36.709661179528055 4.3282685956269011 2 38.241518445142638 5.1977224134365612 2 45.490595050346968 1.8867847114479837 2 48.849631927307847 8.313028609986036 2 53.438172593885817 8.7481215180616676 2 62.610634592532435 1.3226591219113968 2 68.3387402366413 6.7428608836902031 2 70.550555259059053 5.9563291159345564 2 74.342229911668269 9.1528355980317553 2 76.743320987252872 2.49415910706246 2 81.600083667973109 6.147918270506068 2 93.518566309024962 8.1813170376034723 2 96.556885928959787 1 2 15.013517294798655 5.0840061101033669 2 20.653023126612009 8.2324065898296261 2 22.549535864060402 7.7955243020416916 2 26.665971184185135 4.9888827237347471 2 34.055722066752594 1 2 45.882271804540594 4.9113496760086965 2 46.526526839042141 6.5344926281998132 2 52.029821422590167 6.8241081629926388 2 60.557322774742929 11.955408223573363 2 68.852748713795791 5.2526762187865854 2 72.319105457541127 3.4480450834429854 2 72.836109799291066 6.1444124747416344 2 76.474133839057686 1 2 81.560429223267064 2.1701543668997858 2 94.609910489693362 12.355520553770633 2 95.426872773966537 7.0009983255638106 2 12.492972720222914 3.2019980704355437 2 24.330407863137161 4.5782063366192496 2 28.389550703399532 3.6302060119503055 2 38.644196386029179 8.7794080870876474 2 43.271088876674739 1.9777682682053603 2 61.422000799933421 2.8858869006790808 2 67.867103799375158 9.4996690745359302 2 72.850697693743427 9.8793049238602801 2 76.88564115054632 6.29812703913053 2 79.922153208912832 5.7886782751278867 2 95.012356981957765 5.5235370208362822 2 93.919274871481818 1.9012790508806534 2 13.021666555198811 1.7441970238525673 2 22.148665383547904 4.5426032326578856 2 25.65289461762811 10.057501759213066 2 28.786777104279032 9.2136817702491474 2 32.245906240504375 3.085873547413239 2 44.707504283280116 9.1250305226613992 2 50.235260022022942 6.8454560536625051 2 54.670853925898371 5.5284771451437047 2 60.675264492347658 9.3273852127869166 2 68.204825986658264 1.6183360549046655 2 73.177926499233564 1 2 75.803656755631138 3.1879983249049526 2 81.563533991012108 3.6214721643282011 2 92.834017616792451 10.786723178596095 2 97.777256296390362 10.082239480349399 2 8.5948142446653026 3.492165350075823 2 24.037831997480676 1.836845851287658 2 25.128704366280761 1 2 36.826184679681894 6.1805273922634356 2 46.48615468308796 3.6084732087878058 2 64.379842435859629 1 2 66.136405525662767 7.3469346872232766 2 70.623107876175126 8.3016336118284428 2 73.122340698322958 7.9752801098510764 2 80.965496544734506 8.0443537677489463 2 93.587130296640325 5.5232607185012021 2 95.416664842008743 2.0736243822784122 2 12.121321580817288 4.6850917278452924 2 18.81154476192296 8.806246338083934 2 23.798834434006594 9.8223654660264419 2 28.77719190138308 4.8543602669022876 2 35.063098453699034 1.8924065079433425 2 43.121196847199698 5.7274931578221597 2 47.519453495704113 5.158240672272858 2 51.656696132190568 8.591454202749448 2 62.183307988602941 9.9645867818390066 2 70.078967935906704 4.425924568441264 2 69.396354185935778 1 2 73.400548337018193 4.6455669550776753 2 82.52832594730603 1 2 94.481689397935185 9.9805915420540874 2 96.322389163862169 9.5971543324889641 2 10.474099432277727 1 2 25.246626017781999 6.1641442798125459 2 27.842844175886441 1 2 34.582074945243754 10.051151935891761 2 43.414546265179261 3.9664375926305082 2 60.116554086127778 1 2 66.168991430438268 10.014153627343221 2 69.49211107759335 10.331894566066318 2 76.762279039537717 7.9649418216238068 2 78.593023315576275 6.4004591967330438 2 95.028897591092047 2.9062717799421329 2 92.672137414080467 2.1153370534257703 2 14.053265716738714 3.1412369510497804 2 21.415728935516569 3.1090882309326382 2 26.55227916048845 6.8072619793659168 2 30.923500227625212 10.138647605367566 2 34.265075374722393 4.7529438951092766 2 41.884454355431892 8.0939081567727484 2 50.43036349371652 3.0840925787475499 2 53.575309848623377 7.0139180864300945 2 62.370120796844752 7.0638518883896619 2 68.299993466017341 2.9865945572949575 2 71.62753067734441 1 2 74.137137756022398 6.4274184599095037 2 84.061143637367422 5.6748759759897291 2 91.542793010825093 9.4356460908479125 2 96.502266809536962 12.363748255158166 2 20.47714082598814 6.188001661950258 2 9.2592169483616935 1.6573035156300482 2 23.278024255496611 4.0866663489570447 2 24.95687211587817 2.8682696420657354 2 35.662250713269096 3.4301782609841385 2 44.505294453435567 1 2 61.766518193588382 1 2 67.46434732773605 5.826867949846033 2 69.653806916074203 6.8323056151758896 2 75.872449957906568 9.5019041189507192 2 82.377419784834643 7.3076597045248954 2 93.911118688135005 6.8867646640756837 2 97.913668494557413 1 2 15.345904683736185 6.4173091094280652 2 21.650317673296559 6.7438490368051411 2 22.769814443266235 5.8339366030938482 2 27.700275365692857 5.4009940549518074 2 33.004296895261284 1.839079146667514 2 44.581228896633547 5.3378693940437012 2 47.278989394942641 7.9498739026327554 2 51.223287101732566 5.5491577781261769 2 62.20068345336167 11.529821872701095 2 68.619008184683921 4.0300336331074469 2 71.525499304459771 4.279759476501666 2 71.772918200011276 5.4136240541408611 2 80.967605176471267 1 2 92.891352420248651 12.925426343855383 2 94.969084271683627 8.3899506780737276 2 11.707269507697857 1.4669151585707088 2 25.550297134386714 4.4150398663218029 2 28.898579945184295 2.3110321208091742 2 37.348563225310379 7.7554115803770562 2 42.49808693543153 1 2 59.950584486187338 3.0278782195517069 2 67.886204628715433 7.8236187564660638 2 71.285920887524995 10.276878050841933 2 75.349355462675177 5.6809550137550948 2 79.641496378676038 4.3403937175237148 2 94.23772283581765 4.3997321661935711 2 93.807073488407099 1 2 13.84363871263051 1 2 21.097105583446631 4.830505789774187 2 27.035879504697661 8.6481772518913083 2 27.497469742365293 10.474374234866762 2 33.306541668462238 3.8217749564693633 2 45.06417027152289 7.2765277484219215 2 48.623158916086489 6.6468854572286338 2 54.957688223887139 4.1900474176852072 2 59.145123644840552 10.449155790471577 2 67.513619479035384 1 2 72.172110054550586 2.2439891982774443 2 76.417970088491558 4.584426077286115 2 81.097756239767165 4.7594466093305288 2 91.584343713945415 11.531358741060934 2 99.0 11.040539772098374 2 9.8675923094215374 2.873614005653736 2 23.273346452757835 1 2 26.239411845717726 1.4654938123375532 2 35.685293485091741 7.4826455359887465 2 46.670425115992906 2.3054981412391378 2 63.659815757971842 1.7296244020769407 2 66.491377832075685 8.5340783740984669 2 69.235692461426751 8.5942501346932403 2 71.646996833697571 7.272488464756143 2 79.857788276615153 7.4297152431896203 2 92.564918198790821 6.6968165104675927 2 95.416168239774507 1 2 13.577462713087975 5.0224636389208559 2 19.129453184672734 7.3167860361448991 2 23.971991198745425 8.0875862398558969 2 27.974112563332696 7.0232860582199015 2 34.210994467665991 2.9034210733329333 2 43.40142596068474 7.4335546350516442 2 49.060608980391969 5.1853327956183506 2 50.073527283443703 9.2223244563530891 2 63.667771025847422 9.5145936519915768 2 70.625039972439708 3.0095689143781894 2 69.525905807699672 2.5615004646535309 2 74.71104602151614 4.1986179651629021 2 83.361689548928481 1.8999798122950877 2 93.121944209985315 9.3090860125267216 2 95.672838162557554 10.959478208633833 2 11.060984363434272 3.1302988987668843 2 23.912701848560435 6.3514723474162382 2 27.329815002256446 2.3573397092948145 2 36.359966274921312 9.371484537494867 2 44.339604861198282 2.8857499705145422 2 60.82076217664811 1.8401358196576383 2 65.863978552053993 11.405545266213297 2 70.471724658563929 11.931246031967527 2 77.543797610963836 9.6712476763515696 2 78.190061380370096 7.8418309579337846 2 95.495132613692732 4.0189474203146753 2 92.283271702685568 1 2 15.37139986272628 3.5058312146207382 2 20.04599280227503 2.6516090253874527 2 25.474422040336158 8.086205876603211 2 29.526996797042894 11.431294888029504 2 35.543049004266194 5.3528010916412967 2 40.597456683763149 9.30402833680877 2 50.206906700020255 4.5822025999937424 2 53.099490158458451 5.3311368614449401 2 62.845780808667037 8.2760004437654171 2 67.107935828729566 2.7753666455052044 2 70.600931799227823 1.3937752017077674 2 75.274435689650403 7.5606784167687158 2 82.76309777087603 4.9930338550382736 2 91.899795057192307 7.9309891723206976 2 98.186648146406085 12.47316164622112 2 </DataArray>
</Points>
<Cells>
<DataArray Name="connectivity" format="ascii" type="Int32">0</DataArray>
<DataArray Name="offsets" format="ascii" type="Int32">0</DataArray>
<DataArray Name="types" format="ascii" type="UInt8">1</DataArray>
</Cells>
<PointData>
<DataArray Name="Points" NumberOfComponents="3" format="ascii" type="Float32">0 0 0 8.1863575380266091 1.1497814280230372 2 19.712635963000423 4.1655442471574124 2 21.846776321555865 9.5549777238599951 2 23.00789863951486 2.8345434951238593 2 26.611430877732623 3.3552580554235116 2 36.709661179528055 4.3282685956269011 2 38.241518445142638 5.1977224134365612 2 45.490595050346968 1.8867847114479837 2 48.849631927307847 8.313028609986036 2 53.438172593885817 8.7481215180616676 2 62.610634592532435 1.3226591219113968 2 68.3387402366413 6.7428608836902031 2 70.550555259059053 5.9563291159345564 2 74.342229911668269 9.1528355980317553 2 76.743320987252872 2.49415910706246 2 81.600083667973109 6.147918270506068 2 93.518566309024962 8.1813170376034723 2 96.556885928959787 1 2 15.013517294798655 5.0840061101033669 2 20.653023126612009 8.2324065898296261 2 22.549535864060402 7.7955243020416916 2 26.665971184185135 4.9888827237347471 2 34.055722066752594 1 2 45.882271804540594 4.9113496760086965 2 46.526526839042141 6.5344926281998132 2 52.029821422590167 6.8241081629926388 2 60.557322774742929 11.955408223573363 2 68.852748713795791 5.2526762187865854 2 72.319105457541127 3.4480450834429854 2 72.836109799291066 6.1444124747416344 2 76.474133839057686 1 2 81.560429223267064 2.1701543668997858 2 94.609910489693362 12.355520553770633 2 95.426872773966537 7.0009983255638106 2 12.492972720222914 3.2019980704355437 2 24.330407863137161 4.5782063366192496 2 28.389550703399532 3.6302060119503055 2 38.644196386029179 8.7794080870876474 2 43.271088876674739 1.9777682682053603 2 61.422000799933421 2.8858869006790808 2 67.867103799375158 9.4996690745359302 2 72.850697693743427 9.8793049238602801 2 76.88564115054632 6.29812703913053 2 79.922153208912832 5.7886782751278867 2 95.012356981957765 5.5235370208362822 2 93.919274871481818 1.9012790508806534 2 13.021666555198811 1.7441970238525673 2 22.148665383547904 4.5426032326578856 2 25.65289461762811 10.057501759213066 2 28.786777104279032 9.2136817702491474 2 32.245906240504375 3.085873547413239 2 44.707504283280116 9.1250305226613992 2 50.235260022022942 6.8454560536625051 2 54.670853925898371 5.5284771451437047 2 60.675264492347658 9.3273852127869166 2 68.204825986658264 1.6183360549046655 2 73.177926499233564 1 2 75.803656755631138 3.1879983249049526 2 81.563533991012108 3.6214721643282011 2 92.834017616792451 10.786723178596095 2 97.777256296390362 10.082239480349399 2 8.5948142446653026 3.492165350075823 2 24.037831997480676 1.836845851287658 2 25.128704366280761 1 2 36.826184679681894 6.1805273922634356 2 46.48615468308796 3.6084732087878058 2 64.379842435859629 1 2 66.136405525662767 7.3469346872232766 2 70.623107876175126 8.3016336118284428 2 73.122340698322958 7.9752801098510764 2 80.965496544734506 8.0443537677489463 2 93.587130296640325 5.5232607185012021 2 95.416664842008743 2.0736243822784122 2 12.121321580817288 4.6850917278452924 2 18.81154476192296 8.806246338083934 2 23.798834434006594 9.8223654660264419 2 28.77719190138308 4.8543602669022876 2 35.063098453699034 1.8924065079433425 2 43.121196847199698 5.7274931578221597 2 47.519453495704113 5.158240672272858 2 51.656696132190568 8.591454202749448 2 62.183307988602941 9.9645867818390066 2 70.078967935906704 4.425924568441264 2 69.396354185935778 1 2 73.400548337018193 4.6455669550776753 2 82.52832594730603 1 2 94.481689397935185 9.9805915420540874 2 96.322389163862169 9.5971543324889641 2 10.474099432277727 1 2 25.246626017781999 6.1641442798125459 2 27.842844175886441 1 2 34.582074945243754 10.051151935891761 2 43.414546265179261 3.9664375926305082 2 60.116554086127778 1 2 66.168991430438268 10.014153627343221 2 69.49211107759335 10.331894566066318 2 76.762279039537717 7.9649418216238068 2 78.593023315576275 6.4004591967330438 2 95.028897591092047 2.9062717799421329 2 92.672137414080467 2.1153370534257703 2 14.053265716738714 3.1412369510497804 2 21.415728935516569 3.1090882309326382 2 26.55227916048845 6.8072619793659168 2 30.923500227625212 10.138647605367566 2 34.265075374722393 4.7529438951092766 2 41.884454355431892 8.0939081567727484 2 50.43036349371652 3.0840925787475499 2 53.575309848623377 7.0139180864300945 2 62.370120796844752 7.0638518883896619 2 68.299993466017341 2.9865945572949575 2 71.62753067734441 1 2 74.137137756022398 6.4274184599095037 2 84.061143637367422 5.6748759759897291 2 91.542793010825093 9.4356460908479125 2 96.502266809536962 12.363748255158166 2 20.47714082598814 6.188001661950258 2 9.2592169483616935 1.6573035156300482 2 23.278024255496611 4.0866663489570447 2 24.95687211587817 2.8682696420657354 2 35.662250713269096 3.4301782609841385 2 44.505294453435567 1 2 61.766518193588382 1 2 67.46434732773605 5.826867949846033 2 69.653806916074203 6.8323056151758896 2 75.872449957906568 9.5019041189507192 2 82.377419784834643 7.3076597045248954 2 93.911118688135005 6.8867646640756837 2 97.913668494557413 1 2 15.345904683736185 6.4173091094280652 2 21.650317673296559 6.7438490368051411 2 22.769814443266235 5.8339366030938482 2 27.700275365692857 5.4009940549518074 2 33.004296895261284 1.839079146667514 2 44.581228896633547 5.3378693940437012 2 47.278989394942641 7.9498739026327554 2 51.223287101732566 5.5491577781261769 2 62.20068345336167 11.529821872701095 2 68.619008184683921 4.0300336331074469 2 71.525499304459771 4.279759476501666 2 71.772918200011276 5.4136240541408611 2 80.967605176471267 1 2 92.891352420248651 12.925426343855383 2 94.969084271683627 8.3899506780737276 2 11.707269507697857 1.4669151585707088 2 25.550297134386714 4.4150398663218029 2 28.898579945184295 2.3110321208091742 2 37.348563225310379 7.7554115803770562 2 42.49808693543153 1 2 59.950584486187338 3.0278782195517069 2 67.886204628715433 7.8236187564660638 2 71.285920887524995 10.276878050841933 2 75.349355462675177 5.6809550137550948 2 79.641496378676038 4.3403937175237148 2 94.23772283581765 4.3997321661935711 2 93.807073488407099 1 2 13.84363871263051 1 2 21.097105583446631 4.830505789774187 2 27.035879504697661 8.6481772518913083 2 27.497469742365293 10.474374234866762 2 33.306541668462238 3.8217749564693633 2 45.06417027152289 7.2765277484219215 2 48.623158916086489 6.6468854572286338 2 54.957688223887139 4.1900474176852072 2 59.145123644840552 10.449155790471577 2 67.513619479035384 1 2 72.172110054550586 2.2439891982774443 2 76.417970088491558 4.584426077286115 2 81.097756239767165 4.7594466093305288 2 91.584343713945415 11.531358741060934 2 99.0 11.040539772098374 2 9.8675923094215374 2.873614005653736 2 23.273346452757835 1 2 26.239411845717726 1.4654938123375532 2 35.685293485091741 7.4826455359887465 2 46.670425115992906 2.3054981412391378 2 63.659815757971842 1.7296244020769407 2 66.491377832075685 8.5340783740984669 2 69.235692461426751 8.5942501346932403 2 71.646996833697571 7.272488464756143 2 79.857788276615153 7.4297152431896203 2 92.564918198790821 6.6968165104675927 2 95.416168239774507 1 2 13.577462713087975 5.0224636389208559 2 19.129453184672734 7.3167860361448991 2 23.971991198745425 8.0875862398558969 2 27.974112563332696 7.0232860582199015 2 34.210994467665991 2.9034210733329333 2 43.40142596068474 7.4335546350516442 2 49.060608980391969 5.1853327956183506 2 50.073527283443703 9.2223244563530891 2 63.667771025847422 9.5145936519915768 2 70.625039972439708 3.0095689143781894 2 69.525905807699672 2.5615004646535309 2 74.71104602151614 4.1986179651629021 2 83.361689548928481 1.8999798122950877 2 93.121944209985315 9.3090860125267216 2 95.672838162557554 10.959478208633833 2 11.060984363434272 3.1302988987668843 2 23.912701848560435 6.3514723474162382 2 27.329815002256446 2.3573397092948145 2 36.359966274921312 9.371484537494867 2 44.339604861198282 2.8857499705145422 2 60.82076217664811 1.8401358196576383 2 65.863978552053993 11.405545266213297 2 70.471724658563929 11.931246031967527 2 77.543797610963836 9.6712476763515696 2 78.190061380370096 7.8418309579337846 2 95.495132613692732 4.0189474203146753 2 92.283271702685568 1 2 15.37139986272628 3.5058312146207382 2 20.04599280227503 2.6516090253874527 2 25.474422040336158 8.086205876603211 2 29.526996797042894 11.431294888029504 2 35.543049004266194 5.3528010916412967 2 40.597456683763149 9.30402833680877 2 50.206906700020255 4.5822025999937424 2 53.099490158458451 5.3311368614449401 2 62.845780808667037 8.2760004437654171 2 67.107935828729566 2.7753666455052044 2 70.600931799227823 1.3937752017077674 2 75.274435689650403 7.5606784167687158 2 82.76309777087603 4.9930338550382736 2 91.899795057192307 7.9309891723206976 2 98.186648146406085 12.47316164622112 2 </DataArray>
<DataArray Name="forces" NumberOfComponents="3" format="ascii" type="Float32">0 0 0 0.0086429072733276158 -0.38684370584215805 0.0 -0.011299382491037901 0.077020501254395635 0.0 0.10906105780449039 0.25690365416053657 0.0 0.00010597287974947397 -0.049307849491133898 0.0 -0.015944422540241365 0.037231125213880722 0.0 0.057699335714979427 0.20049840973904781 0.0 0.13990854329798613 0.15095052582829521 0.0 -0.021366304772035383 -0.040610544124393966 0.0 0.036110801523982938 0.13131436785009531 0.0 -0.02310193533628771 0.17219076855723228 0.0 0.10459976537829427 -0.39068468070949919 0.0 0.0083029399397967548 0.1309985161952551 0.0 -0.023101056348498322 0.021955554738638111 0.0 0.025417576563279601 0.092921864216631234 0.0 -0.078439772505758232 0.059417846477766323 0.0 -0.15319245550221208 0.30397121446523034 0.0 0.028172380625942295 0.039105724465272849 0.0 0.085135375376369393 -0.90958537544266638 0.0 0.019231559918571575 -0.11646130178190228 0.0 -0.058825933894612242 0.28016040257808666 0.0 -0.064956254507326977 0.30884700082618077 0.0 -0.029677063289278993 0.11486268055126256 0.0 0.031996259425417006 -0.9340825889366251 0.0 -0.064677163019578043 0.027496411449329961 0.0 0.038359937149263057 -0.053454316435182558 0.0 -0.030538764607032823 0.36093067031902637 0.0 -0.3128177726529327 0.080501417635599801 0.0 0.22591551682684197 0.25074625951386625 0.0 0.25745563394469501 0.14355179726727491 0.0 0.03630967874410157 0.24734580766229478 0.0 -0.066709115877737646 -0.79851136775565146 0.0 0.052513397245650517 0.069454927541408168 0.0 -0.078414192672475139 0.1389375328545554 0.0 0.091649635898339937 0.28826477523682548 0.0 0.1485071007987589 0.088041468219195063 0.0 -0.10825706119955207 0.28871065768315618 0.0 -0.23708746403665831 0.12056440369468491 0.0 0.28632389504863376 0.22422311353042104 0.0 0.15435361149759919 0.22756442385893133 0.0 0.19894104468640039 -0.047473052793174486 0.0 0.070916791894242603 0.078669451038790472 0.0 0.067698568849472118 0.11974367126943197 0.0 -0.091310185198879165 0.21570322170572462 0.0 0.032836582835498826 0.18792120409477353 0.0 0.041755794969301652 0.076005397588556123 0.0 -0.016693902489231721 0.14166628712101828 0.0 -0.093397021861390428 0.099089364877240182 0.0 0.041620375349201599 -0.034343505289974097 0.0 0.013559499522114217 0.021564664241682865 0.0 0.12121095338954677 0.28021504670937614 0.0 -0.12227921411904238 -0.14252648053207137 0.0 -0.024181032415078466 0.12627030386904367 0.0 -0.043908786863031291 0.36492763712790288 0.0 0.03450167697982065 0.24234391965595828 0.0 -0.014776761798351135 0.16563999854844697 0.0 0.23839753200002162 -0.1082264153410393 0.0 0.067886976221717965 -0.81497293435242091 0.0 -0.13703342529183687 0.031840056506424297 0.0 -0.015512794279077008 0.096264593539841292 0.0 0.32160551641233265 0.36842624917810951 0.0 -0.25127623129553273 0.13248125376755382 0.0 -0.2149402591650697 -0.066645316412700051 0.0 0.087495573004302107 0.1623432995245051 0.0 -0.091281341381008407 -0.81826217837132154 0.0 0.090701764658962292 0.14543266209147165 0.0 -0.18448127684865584 0.10824557489781328 0.0 0.10006727446192276 -1.2342519219235581 0.0 -0.085229160421611702 0.10029492331245381 0.0 0.3200829306827615 0.45109483755095786 0.0 0.075671555883251307 0.13784133037145918 0.0 -0.014895196500819885 0.19966049636115157 0.0 -0.034647543249185647 0.078088765975848767 0.0 0.42213560833001484 0.18581330955197717 0.0 -0.22943901710033043 0.20662477922997066 0.0 0.049834132254751598 0.32392650346775775 0.0 -0.16037657758163798 0.25239358723569394 0.0 0.11212889075637278 -0.024877527809293937 0.0 0.010034426747518088 -0.063859539065345305 0.0 -0.065400004407167006 0.066000180962237587 0.0 -0.066898746509718776 0.00011820002275721338 0.0 0.041429104046156962 0.037875326592192393 0.0 -0.18093454069865478 0.013670659855637757 0.0 0.053165667515467592 -9.195345209174477e-05 0.0 -0.029598690321313459 -0.96912699123652501 0.0 -0.010593565581805242 0.19752112194561783 0.0 0.013246883668315057 -0.9342683789373889 0.0 0.014262196671975813 0.1939828351933946 0.0 -0.10050809866393762 0.11320144503555551 0.0 -0.085538993611309039 -0.57221701028569849 0.0 0.088331153672266474 0.062315144494322253 0.0 -0.041316974136907519 -0.89121996866400566 0.0 -0.071761380769064742 0.18556864879703325 0.0 -0.095213827703528098 0.10575782568981312 0.0 0.0082371797145353032 -0.70201954518947529 0.0 0.17896055599302155 0.18542632776232848 0.0 0.003513652354833155 0.19308938235406925 0.0 -0.086771690473144203 0.18246522298641848 0.0 -0.14829369466997208 0.060506817243192623 0.0 0.12037342044388244 0.036304779703264511 0.0 -0.010558239529186782 0.18398196132848421 0.0 -0.080985827276481404 0.067359630487743044 0.0 0.12564787234196045 -0.0079930296984636884 0.0 -0.012474833174654809 0.12734335090328275 0.0 0.082225850088026645 0.062103896285746488 0.0 0.13234099807667032 0.00017760330417637693 0.0 -0.13268401182251394 0.082383738318984934 0.0 -0.025956190882441568 -0.14918829615184104 0.0 -0.080509814700881574 0.17071545985664399 0.0 -0.090812733217693536 -0.026210372262882253 0.0 -0.045554755933364666 0.062956477266881167 0.0 0.13528342089245982 -0.92008820959284066 0.0 -0.018131493114537767 0.11041349022342989 0.0 -0.016883297972213107 0.11904865769409156 0.0 -0.042960556106175177 0.53027850881597527 0.0 -0.023019677575771724 0.29548036880112694 0.0 -0.051002792959011056 0.28776566363085831 0.0 -0.059032171261658828 0.0022721525648161656 0.0 0.16947565923165694 -0.10691934237895692 0.0 0.066575553778641397 0.097342002825036064 0.0 0.0012902754082575315 0.029798121269524774 0.0 -0.15498473596158516 -0.84252240530451505 0.0 -0.094131901264445261 -1.0031883698319166 0.0 0.0048509157636940081 0.0049829888704051584 0.0 0.14500101406245597 0.38760347132985451 0.0 -0.013134986666972104 0.2533921709674038 0.0 0.092634919173913088 0.34664215043540758 0.0 0.24572764198412267 0.074240062892617295 0.0 -0.027317927473144252 -1.0515193217634153 0.0 0.063713673235051504 0.027586291133884402 0.0 0.1022352913366701 0.10574992170859324 0.0 -0.01494465921382826 0.032646188095987627 0.0 0.091239538575298512 0.25033231740584266 0.0 0.01478018193302072 0.18824962166280823 0.0 0.011297879012102247 0.21908725907652182 0.0 -0.29519177761875759 0.35604302670396026 0.0 0.11959249639701594 0.067214561667322648 0.0 -0.096669838552572718 -0.0051500851425309579 0.0 -0.010910837980272224 0.10423791811273203 0.0 -0.025288367790763988 0.034720444662470318 0.0 0.066751363033100461 0.12981162346065353 0.0 0.069649111589316748 -0.89111107176907456 0.0 -0.12768091396114192 0.11939608373836078 0.0 0.075809710969277078 0.3293941048103719 0.0 0.030790610747463934 -0.19083332240401238 0.0 -0.098155309921362691 0.013806444079425273 0.0 0.25013640983389696 0.01841989159435127 0.0 0.20417010571180971 0.054837913995451806 0.0 -0.14458409838617692 -0.97830373545410465 0.0 -0.015986536856373357 0.024182230793210246 0.0 -0.14131375974279031 0.066695911742110175 0.0 -0.10620793704726655 -0.060767749075693156 0.0 -0.010098807593793386 0.14192775953202874 0.0 -0.085248259313101926 0.23766214944321054 0.0 -0.027119625559917565 0.08130909418646981 0.0 0.19937070341844082 -1.4424038862604267 0.0 -0.22712413093499284 -0.7852274311138423 0.0 -0.087402997423627476 0.081901871984572411 0.0 0.13799742317119051 0.10990856557231728 0.0 -0.0035241972239173636 0.29243188858317259 0.0 -0.1597925584877945 0.17558282864672892 0.0 0.028250688837260285 0.0089579869040957473 0.0 -0.38321436335896564 0.1052186466049263 0.0 0.014357625347871439 0.084341732488101617 0.0 -0.024404191565608586 0.1697308335378605 0.0 -0.14575101485573735 -1.0618007245596834 0.0 -0.10700827503499166 -0.013032499389137392 0.0 0.1625544006330415 0.091770103378102846 0.0 0.051593143931314422 0.064584045561794728 0.0 0.044541442243979275 0.089190650253682002 0.0 0.54425949972326881 -0.020114475416102395 0.0 -0.00030271570299333916 0.011124573466627818 0.0 0.063551356884843258 -0.94016816122816815 0.0 0.013703640155223296 -0.1371905065020671 0.0 -0.023611751357221655 0.14004165400255086 0.0 -0.012854003040599235 0.21568143280381458 0.0 0.056991654032482394 0.083426449189398594 0.0 -0.073017519967321726 0.14340734984649497 0.0 0.039285602303542166 0.083796118279162141 0.0 -0.014929211864165456 0.059007712062460332 0.0 -0.038616745045806145 0.0076695320987210658 0.0 0.013903509478507714 0.091926485322580964 0.0 -0.27071753663603904 -1.1074522633039106 0.0 -0.083033552531517674 0.14995395392291996 0.0 -0.1049766123809488 0.19246561938809553 0.0 0.090804017012393601 0.097472108304552274 0.0 0.032976759925292254 0.37456647290653095 0.0 -0.04736464883272995 0.045106777145506594 0.0 0.041772468821915987 0.16080337596891159 0.0 0.068250967728306411 0.21801901072840424 0.0 0.11883644495769885 0.39754865177016802 0.0 0.01482476298349672 0.4504849246666629 0.0 0.18920062336965462 -0.047630371716423758 0.0 0.10560983100072785 0.13175744610534743 0.0 0.062512035295459845 0.27689958541015813 0.0 -0.093218448795807096 0.18301969359517639 0.0 -0.090452448288970547 0.14197514476027304 0.0 0.1004204029590702 0.22123610639389851 0.0 0.1926966387645741 0.011131310808252165 0.0 2.8854184649186598e-05 0.29541471601693092 0.0 0.059133365441730146 0.017983680812340697 0.0 0.044837102446254523 0.057843963673766742 0.0 0.46365961828815772 0.37028813112519776 0.0 -0.16512706431988455 0.12472455479155857 0.0 0.14885159236627554 0.22170494648498035 0.0 -0.01280231381666562 0.26983094797810092 0.0 0.0032653427858700332 0.18435586202093074 0.0 -0.047253873395530437 0.16507849392849 0.0 -0.061555404691384402 0.21262377308575775 0.0 0.20058070333921896 -1.273696824911444 0.0 -0.11134116236627539 -0.10092648573354285 0.0 0.029843366804304439 0.16609168297022972 0.0 -0.054454625518400634 0.19899981744055614 0.0 -0.079148856414356969 0.073965305001480089 0.0 0.035902738640093135 0.15699884552318058 0.0 -0.17605183383060002 0.16502306995536076 0.0 -0.03492517341597523 -0.025712626038396136 0.0 0.0066038872464177084 -0.072577188994623842 0.0 -0.021089239198656518 0.14986895005205686 0.0 -0.055420041873267135 -0.088752726753240085 0.0 -0.054160909301644744 -0.22887277030183872 0.0 -0.095302405374085325 0.1504651102481237 0.0 -0.065248575846666323 0.1067850309353115 0.0 0.02800433106727869 0.25311033080756407 0.0 0.1355822153214597 0.34320874900843884 0.0 </DataArray>
<DataArray Name="radii" format="ascii" type="Float32">0 1 1.2 1 1 1 1 1.2 1 1 1 1 1 1 1 1 1 1 1 1 1 1 1 1 1 1 1 1 1 1 1 1 1 1 1 1 1 1 1 1 1 1 1 1 1 1 1 1 1 1 1 1 1 1 1 1 1 1 1 1 1 1 1 1 1 1 1 1 1 1 1 1 1 1 1 1 1 1 1 1 1 1 1 1 1 1 1 1 1 1 1 1 1 1 1 1 1 1 1 1 1 1 1 1 1 1 1 1 1 1 1 1 1 1 1 1 1.2 1 1 1 1 1 1 1 1 1 1 1 1 1 1 1 1 1 1 1 1 1 1 1 1 1 1 1 1 1 1 1 1 1 1 1 1 1 1 1 1 1 1 1 1 1 1 1 1 1 1 1 1 1 1 1 1 1 1 1 1 1 1 1 1 1 1 1 1 1 1 1 1 1 1 1 1 1 1 1 1 1 1 1 1 1 1 1 1 1 1 1 1 1 1 1 1 1 1 1 1 1 1 1 1 1 1 1 1 </DataArray>
</PointData>
<CellData/>
</Piece>
</UnstructuredGrid>
</VTKFile>
