<?xml version="1.0" ?>
<VTKFile byte_order="LittleEndian" type="UnstructuredGrid" version="0.1">
<UnstructuredGrid>
<Piece NumberOfCells="0" NumberOfPoints="32">
<Points>
<DataArray NumberOfComponents="3" format="ascii" type="Float32">2.7615869770572568 3.7385327484248814 2 6.5086394338315881 1.3500000000000003 2 15.261758921695204 1.3500000000000003 2 18.334564053379019 1.3500000000000003 2 19.92821137133155 1.3500000000000003 2 38.008629012538613 2.9692778677933185 2 38.624653539400768 1.3500000000000003 2 41.526508487013047 2.9722744553123763 2 48.513930569248693 3.2963343531756415 2 50.762306287365895 1.3500000000000003 2 51.867875392263201 3.8543657910217046 2 65.073243196634905 2.7613694111437685 2 74.165592636827469 2.6072264475724398 2 77.912312804828986 1.3500000000000003 2 79.326696146193953 1.3500000000000003 2 91.051753735841544 1.3500000000000003 2 2.8734901337708529 1.3500000000000003 2 4.6885448731695902 1.3500000000000003 2 16.754737524956052 1.3500000000000003 2 18.152746434930972 3.250643469552251 2 21.637724328969977 1.3500000000000003 2 36.690570612320421 1.3500000000000003 2 39.828358519750708 3.8142407346127585 2 40.342043652101822 1.3500000000000003 2 47.58390433421917 1.3500000000000003 2 49.191013980984714 1.3500000000000003 2 52.040591694931628 1.3500000000000003 2 65.978611527705638 1.3500000000000003 2 75.026064391492142 1.3500000000000003 2 78.002303226174675 3.4050749974736085 2 79.672758504805714 2.9571299065028795 2 91.191445104971976 2.8549308569272069 2 </DataArray>
</Points>
<Cells>
<DataArray Name="connectivity" format="ascii" type="Int32">0</DataArray>
<DataArray Name="offsets" format="ascii" type="Int32">0</DataArray>
<DataArray Name="types" format="ascii" type="UInt8">1</DataArray>
</Cells>
<PointData>
<DataArray Name="Points" NumberOfComponents="3" format="ascii" type="Float32">2.7615869770572568 3.7385327484248814 2 6.5086394338315881 1.3500000000000003 2 15.261758921695204 1.3500000000000003 2 18.334564053379019 1.3500000000000003 2 19.92821137133155 1.3500000000000003 2 38.008629012538613 2.9692778677933185 2 38.624653539400768 1.3500000000000003 2 41.526508487013047 2.9722744553123763 2 48.513930569248693 3.2963343531756415 2 50.762306287365895 1.3500000000000003 2 51.867875392263201 3.8543657910217046 2 65.073243196634905 2.7613694111437685 2 74.165592636827469 2.6072264475724398 2 77.912312804828986 1.3500000000000003 2 79.326696146193953 1.3500000000000003 2 91.051753735841544 1.3500000000000003 2 2.8734901337708529 1.3500000000000003 2 4.6885448731695902 1.3500000000000003 2 16.754737524956052 1.3500000000000003 2 18.152746434930972 3.250643469552251 2 21.637724328969977 1.3500000000000003 2 36.690570612320421 1.3500000000000003 2 39.828358519750708 3.8142407346127585 2 40.342043652101822 1.3500000000000003 2 47.58390433421917 1.3500000000000003 2 49.191013980984714 1.3500000000000003 2 52.040591694931628 1.3500000000000003 2 65.978611527705638 1.3500000000000003 2 75.026064391492142 1.3500000000000003 2 78.002303226174675 3.4050749974736085 2 79.672758504805714 2.9571299065028795 2 91.191445104971976 2.8549308569272069 2 </DataArray>
<DataArray Name="forces" NumberOfComponents="3" format="ascii" type="Float32">-0.43306250029343157 0.19363227892395649 0.0 -0.14229530640077181 -0.14391016275454455 0.0 0.0073971152908094175 -0.89595314002414561 0.0 -0.049360158028682766 -1.1369422152022652 0.0 -0.11669540917743015 -1.4508902388759064 0.0 0.18066288517946666 0.12464132128786065 0.0 0.12958835093771714 -0.90504448026327666 0.0 -0.065331786121833074 0.20595141548192952 0.0 0.011080206656501557 0.10020864234003413 0.0 -0.15275729861311202 -0.81946647443517129 0.0 -0.20076952640436746 0.14212339871607882 0.0 -0.056764395813963142 0.093479982612386478 0.0 0.17442202414594274 0.054206601257028808 0.0 -0.081514695056139813 -1.3630580458620125 0.0 -0.082509698353439465 -1.2841452012863621 0.0 -0.0034541360343647298 -1.6963997689270918 0.0 -0.0054704153118583232 -0.23726645515853256 0.0 -0.030309524336361027 -0.52465381537589617 0.0 -0.039761096230065365 -1.1877737377047852 0.0 -0.083250003165140418 0.076938147218174838 0.0 -0.12327211536075494 -1.5224537943121064 0.0 0.2864403419930216 -0.88760452034717063 0.0 -0.020710419137534096 0.072291408181617611 0.0 -0.031646712004482991 -0.68977843047549015 0.0 0.025356006198006042 -1.3232375571978956 0.0 -0.098413734877825343 -0.98097689452582693 0.0 -0.1093853022843676 -1.0216404630917837 0.0 0.032759157244542203 -1.4446976443077881 0.0 0.045112150525321887 -1.4253572937318157 0.0 -0.021932279655532905 0.058107192883273373 0.0 -0.20099830964324594 0.17653301819760325 0.0 -0.090214334018911768 0.12540762917380022 0.0 </DataArray>
<DataArray Name="radii" format="ascii" type="Float32">1.3500000000000003 1.3500000000000003 1.3500000000000003 1.3500000000000003 1.3500000000000003 1.3500000000000003 1.3500000000000003 1.3500000000000003 1.3500000000000003 1.3500000000000003 1.3500000000000003 1.3500000000000003 1.3500000000000003 1.3500000000000003 1.3500000000000003 1.3500000000000003 1.3500000000000003 1.3500000000000003 1.3500000000000003 1.3500000000000003 1.3500000000000003 1.3500000000000003 1.3500000000000003 1.3500000000000003 1.3500000000000003 1.3500000000000003 1.3500000000000003 1.3500000000000003 1.3500000000000003 1.3500000000000003 1.3500000000000003 1.3500000000000003 </DataArray>
</PointData>
<CellData/>
</Piece>
</UnstructuredGrid>
</VTKFile>
