<?xml version="1.0" ?>
<VTKFile byte_order="LittleEndian" type="UnstructuredGrid" version="0.1">
<UnstructuredGrid>
<Piece NumberOfCells="0" NumberOfPoints="32">
<Points>
<DataArray NumberOfComponents="3" format="ascii" type="Float32">11.621224249192048 7.3757631257934566 2 23.51152339631237 1.4 2 44.50609343306153 5.1744757929269269 2 75.884168410279713 1.4 2 10.886080164424163 5.1409572973356212 2 21.920359734037756 3.6996574592337823 2 41.985913786261008 5.2282134880786932 2 77.358933237150467 7.1775455988483667 2 16.550930669161282 3.8237018055935001 2 25.869707742575329 2.4625816289303772 2 43.12602557050235 7.1330996620272265 2 77.78977550576748 1.4 2 12.036248512931722 1.4 2 23.896012660884214 8.0327459985454883 2 44.400355206465456 1.4 2 75.778071570836531 5.5790132263477865 2 14.159226689060885 7.5442542080377679 2 25.220566014541344 1.4 2 44.840915686195792 3.058890910872599 2 73.233055964693236 2.5325844286559072 2 8.8876398750140648 3.9461317011663568 2 23.604170131829225 3.2286150595122924 2 43.041928203541943 3.4233631865926899 2 79.805801167462718 7.4370551861241827 2 15.478328521822123 5.5412309297911655 2 27.492968303296863 1.4 2 45.498623115672501 7.5868819926419064 2 76.522745139634779 2.9222467268079617 2 10.774062128116537 3.2137265555595831 2 25.758057850213639 6.6054258970722985 2 46.162877986516079 1.4 2 74.952787050638278 3.5504028373358474 2 </DataArray>
</Points>
<Cells>
<DataArray Name="connectivity" format="ascii" type="Int32">0</DataArray>
<DataArray Name="offsets" format="ascii" type="Int32">0</DataArray>
<DataArray Name="types" format="ascii" type="UInt8">1</DataArray>
</Cells>
<PointData>
<DataArray Name="Points" NumberOfComponents="3" format="ascii" type="Float32">11.621224249192048 7.3757631257934566 2 23.51152339631237 1.4 2 44.50609343306153 5.1744757929269269 2 75.884168410279713 1.4 2 10.886080164424163 5.1409572973356212 2 21.920359734037756 3.6996574592337823 2 41.985913786261008 5.2282134880786932 2 77.358933237150467 7.1775455988483667 2 16.550930669161282 3.8237018055935001 2 25.869707742575329 2.4625816289303772 2 43.12602557050235 7.1330996620272265 2 77.78977550576748 1.4 2 12.036248512931722 1.4 2 23.896012660884214 8.0327459985454883 2 44.400355206465456 1.4 2 75.778071570836531 5.5790132263477865 2 14.159226689060885 7.5442542080377679 2 25.220566014541344 1.4 2 44.840915686195792 3.058890910872599 2 73.233055964693236 2.5325844286559072 2 8.8876398750140648 3.9461317011663568 2 23.604170131829225 3.2286150595122924 2 43.041928203541943 3.4233631865926899 2 79.805801167462718 7.4370551861241827 2 15.478328521822123 5.5412309297911655 2 27.492968303296863 1.4 2 45.498623115672501 7.5868819926419064 2 76.522745139634779 2.9222467268079617 2 10.774062128116537 3.2137265555595831 2 25.758057850213639 6.6054258970722985 2 46.162877986516079 1.4 2 74.952787050638278 3.5504028373358474 2 </DataArray>
<DataArray Name="forces" NumberOfComponents="3" format="ascii" type="Float32">-0.043608687876484087 0.57027628570866384 0.0 -0.027940820146778053 -1.0625830871619464 0.0 -0.071251777210740525 0.59050333210786388 0.0 0.085698350277383151 -1.4848433629140976 0.0 -0.012857436151007796 0.51158554939945022 0.0 0.050266541691458444 0.49619894518571162 0.0 0.04432179527736281 0.57121633701696983 0.0 -0.050697973614925909 0.57444386872436737 0.0 -0.012431316798070545 0.48260910843330673 0.0 -0.031195234145185879 0.48566831319462789 0.0 -0.026329294805801318 0.72530423631227581 0.0 0.054268188008342877 -1.5889390118546103 0.0 0.062372191646840824 -1.2320045850213921 0.0 -0.043017070217339637 0.60781498958045588 0.0 0.10042111790850039 -1.3560051835353883 0.0 -0.016040226248379641 0.51821057987828567 0.0 -0.00031483948996990918 0.59148832235241811 0.0 -0.010267227396975054 -1.5957882617706602 0.0 -0.013860167304621474 0.56397266233018351 0.0 -0.016658436094669438 0.46917844873151593 0.0 -0.023230103314558104 0.43496713280162802 0.0 0.031281256927711693 0.51282718731967059 0.0 -0.019412424221505242 0.42933962030232331 0.0 -0.01026873411264706 0.59758122557363769 0.0 0.048267931026030525 0.57726525641282467 0.0 -0.0043216424835582218 -1.4948139541372576 0.0 0.013720998652810373 0.58417325243234963 0.0 -0.048703373630998525 0.53358151160349254 0.0 -0.097493220829861699 0.44650943474098681 0.0 0.034940285580523388 0.59489920501824145 0.0 0.048634336549223972 -1.2406184769593813 0.0 -0.072773990289919155 0.49847511794879157 0.0 </DataArray>
<DataArray Name="radii" format="ascii" type="Float32">1.4 1.4 1.4 1.4 1.4 1.4 1.4 1.4 1.4 1.4 1.4 1.4 1.4 1.4 1.4 1.4 1.4 1.4 1.4 1.4 1.4 1.4 1.4 1.4 1.4 1.4 1.4 1.4 1.4 1.4 1.4 1.4 </DataArray>
</PointData>
<CellData/>
</Piece>
</UnstructuredGrid>
</VTKFile>
