<?xml version="1.0" ?>
<VTKFile byte_order="LittleEndian" type="UnstructuredGrid" version="0.1">
<UnstructuredGrid>
<Piece NumberOfCells="0" NumberOfPoints="167">
<Points>
<DataArray NumberOfComponents="3" format="ascii" type="Float32">1.2 1.2 2 4.4590221037719298 5.2667184823769224 2 4.8064914097791593 3.1744816785925387 2 16.471877516933322 4.7889653584190617 2 30.060988871702666 3.3458373130627233 2 39.844091712214862 6.7022545156267732 2 41.51720114615572 4.7594417397390432 2 55.670416189041511 8.4832544439968878 2 62.585203200742569 5.8042818800665321 2 64.414242277913687 4.6810128987576665 2 78.023795406045039 5.0132410655382502 2 86.379936094071638 1.2 2 89.101165398921609 2.3286536956048383 2 87.156338025810911 12.61372809104544 2 97.261226646604399 7.2610103276217801 2 7.2081688803357773 7.844136530898651 2 12.360955370225305 9.1317877008124526 2 32.634945687773218 9.2999352386384011 2 41.458342943751674 6.340950251605209 2 56.330569349202285 3.317362641674908 2 58.721846330084702 2.794050838156501 2 64.949162808964246 12.947527864108109 2 84.356455221913734 11.62025962497656 2 84.184365351562477 1.2 2 88.040086382893406 8.4387435126939732 2 89.296104775347501 7.8024294665184319 2 98.8 1.2 2 17.534558103080364 10.271204880324673 2 32.029650248181554 1.2 2 56.542529895114214 6.2581848875189801 2 58.249073336288319 9.0791971570145744 2 66.12893912020138 3.5614605574550038 2 87.227327036995334 4.5961059857525512 2 90.570821497560715 5.393663464589868 2 87.931388010095873 10.875614204420785 2 96.038773981160006 6.2048227382604972 2 8.6919863590757345 9.6468239622411289 2 10.059564268808412 4.7206019504489554 2 34.311613600364794 8.5592773812659839 2 54.340968306299914 1.823815569962058 2 58.740656339405895 4.4002525010303737 2 64.4661010989321 8.0243034133046329 2 79.103304846404555 9.3273899309115258 2 85.312271090351302 4.4148222286141463 2 84.90466078379626 7.9123763037063926 2 92.573372305871686 4.9257649092949976 2 98.8 6.7981749916463912 2 17.620968709986929 5.1141101298149119 2 29.40122485063916 8.0277581049042208 2 55.651991532929038 11.768370468168353 2 59.956750398558498 6.4505398846981361 2 62.879082294566835 2.8433631624365558 2 85.575308372248472 3.115031903688914 2 87.586614172084253 1.2 2 90.215309688624515 12.665471593058061 2 98.8 8.0473516696973331 2 7.4125507759983842 4.7016260112645147 2 15.056399311746311 8.3620262095188238 2 31.118926687706651 6.5504399661006625 2 55.437988368869732 1.2 2 57.415654371220654 2.5668973427374602 2 67.486932813295127 13.23307225162271 2 83.4984483300574 9.214185903079942 2 82.87537545907395 3.3212333463786412 2 88.637726396932607 5.8383466267658752 2 90.907257350627077 7.1952364856958306 2 98.8 2.5575340725345672 2 16.815393645407262 8.1594865339465645 2 29.373733727189482 1.2 2 57.448886660173009 4.2415744896885581 2 58.455787760448224 7.0550886241081674 2 65.705665197511834 4.9341875092032597 2 86.862808669044909 3.4582180912095954 2 89.897555246430088 3.1713913894505872 2 89.951062090861882 10.89366789766812 2 96.555381701088393 4.1624599920348953 2 9.1026560234036804 7.3506070095026566 2 12.327753375533826 7.0105291923195008 2 32.668770210546725 5.5370685162611277 2 52.742814343722955 2.9054236770165685 2 59.993821036284942 4.7341758718513667 2 63.811141730193299 6.7167057291378374 2 81.151301499536444 11.804579107120784 2 85.768415580052192 6.6888940305237581 2 85.054808909717266 9.5915320653339595 2 93.644356635655669 3.3684360682925378 2 98.8 3.6503332368627404 2 16.661416512069351 3.0240674641378655 2 31.598809013972396 4.6300228959001828 2 54.995433065868795 7.1440167513741759 2 61.405381495024464 4.1915969819431238 2 63.837409693022082 3.5102470419349769 2 86.89753962105101 2.3397444886705485 2 89.937424709904249 1.2 2 88.632685688841121 13.690193406003766 2 96.8578963900746 8.3733498814176226 2 6.2484708409673777 6.1117690389738941 2 13.828838235813041 9.9565661685314115 2 30.952577537826631 8.4078715393141703 2 55.403779673361598 2.6998311404139326 2 57.750474108496583 1.2 2 63.126663029893791 13.03378342326997 2 82.842061596648833 11.154269909437746 2 85.3137447131557 1.2 2 86.577804881228502 7.8502587377373532 2 90.265731517088184 8.8548003655075416 2 97.361199885184803 2.0178813849907082 2 15.742123384354548 10.215137581205976 2 31.025660762396441 2.6254509420887726 2 57.071608929219593 7.770461926331965 2 56.924455412394664 10.139139455436259 2 67.155217996825144 4.5532128379319232 2 86.885248375091308 5.6623086214964875 2 89.806634723732799 4.4665444320985328 2 86.679106656726816 9.4468933305593445 2 96.930493945476314 5.4246296524252982 2 10.737344144960577 10.309091882184097 2 8.6177633698791087 5.6801749482566919 2 34.262237845294678 6.6211714566795861 2 53.441686274000261 1.2 2 58.265197102676424 5.7535939264357978 2 64.825862288415877 9.4583712410633023 2 78.664488710247127 11.697473001390509 2 85.233263877683285 5.5557585541840737 2 83.684654094632535 7.228979707827178 2 91.319667128124223 4.0713176437169061 2 98.172387660188562 5.7419280839473492 2 18.978415838339973 5.6217512521361011 2 29.568452525127057 6.4500687136037769 2 54.768805521900944 9.9758424534639492 2 61.043173346768128 7.7773719105623833 2 62.863411076536096 4.6803429280585416 2 84.605034331288053 2.6712553554184981 2 88.671349044469821 1.2 2 90.722171123740054 14.660879339595406 2 98.8 9.2659177821622318 2 6.1961209612812773 3.6250282553353643 2 13.74839654405506 7.3490002441829931 2 30.299305657267269 4.838312777830482 2 56.58224960121548 1.2 2 58.920748396710081 1.2 2 67.930608430247602 11.430494073737382 2 81.936254357386119 9.4785326358710176 2 83.812819326045414 4.0367217414755139 2 89.692172250917636 6.5479550555635111 2 91.72714251185073 5.821032841308357 2 96.758992999692779 2.9588022829728584 2 17.424792985721385 6.753774126717734 2 30.719030544914066 1.2 2 56.261179351599907 5.0208465234756376 2 59.576409941751827 8.3374427754393032 2 66.28333951450729 6.4074531933205607 2 88.224674502574643 3.0612589924507607 2 88.617303526716213 4.4783028658047233 2 88.88872672293499 9.7055203539104404 2 97.714835363567815 3.7937869329360199 2 10.644866491436213 8.1710138595218176 2 10.858282910047707 6.1608852279518276 2 32.659148413311939 7.3089321634466504 2 53.930606976226194 3.5995519799476883 2 61.098741064136931 5.7483056063375457 2 64.729649606642226 6.0561007298855216 2 80.261953085474801 10.276599291040336 2 87.742140550189447 6.7903363378104453 2 85.986889686685629 11.273005275461712 2 92.59432773656988 3.6089108916795491 2 98.8 4.955745095384037 2 </DataArray>
</Points>
<Cells>
<DataArray Name="connectivity" format="ascii" type="Int32">0</DataArray>
<DataArray Name="offsets" format="ascii" type="Int32">0</DataArray>
<DataArray Name="types" format="ascii" type="UInt8">1</DataArray>
</Cells>
<PointData>
<DataArray Name="Points" NumberOfComponents="3" format="ascii" type="Float32">1.2 1.2 2 4.4590221037719298 5.2667184823769224 2 4.8064914097791593 3.1744816785925387 2 16.471877516933322 4.7889653584190617 2 30.060988871702666 3.3458373130627233 2 39.844091712214862 6.7022545156267732 2 41.51720114615572 4.7594417397390432 2 55.670416189041511 8.4832544439968878 2 62.585203200742569 5.8042818800665321 2 64.414242277913687 4.6810128987576665 2 78.023795406045039 5.0132410655382502 2 86.379936094071638 1.2 2 89.101165398921609 2.3286536956048383 2 87.156338025810911 12.61372809104544 2 97.261226646604399 7.2610103276217801 2 7.2081688803357773 7.844136530898651 2 12.360955370225305 9.1317877008124526 2 32.634945687773218 9.2999352386384011 2 41.458342943751674 6.340950251605209 2 56.330569349202285 3.317362641674908 2 58.721846330084702 2.794050838156501 2 64.949162808964246 12.947527864108109 2 84.356455221913734 11.62025962497656 2 84.184365351562477 1.2 2 88.040086382893406 8.4387435126939732 2 89.296104775347501 7.8024294665184319 2 98.8 1.2 2 17.534558103080364 10.271204880324673 2 32.029650248181554 1.2 2 56.542529895114214 6.2581848875189801 2 58.249073336288319 9.0791971570145744 2 66.12893912020138 3.5614605574550038 2 87.227327036995334 4.5961059857525512 2 90.570821497560715 5.393663464589868 2 87.931388010095873 10.875614204420785 2 96.038773981160006 6.2048227382604972 2 8.6919863590757345 9.6468239622411289 2 10.059564268808412 4.7206019504489554 2 34.311613600364794 8.5592773812659839 2 54.340968306299914 1.823815569962058 2 58.740656339405895 4.4002525010303737 2 64.4661010989321 8.0243034133046329 2 79.103304846404555 9.3273899309115258 2 85.312271090351302 4.4148222286141463 2 84.90466078379626 7.9123763037063926 2 92.573372305871686 4.9257649092949976 2 98.8 6.7981749916463912 2 17.620968709986929 5.1141101298149119 2 29.40122485063916 8.0277581049042208 2 55.651991532929038 11.768370468168353 2 59.956750398558498 6.4505398846981361 2 62.879082294566835 2.8433631624365558 2 85.575308372248472 3.115031903688914 2 87.586614172084253 1.2 2 90.215309688624515 12.665471593058061 2 98.8 8.0473516696973331 2 7.4125507759983842 4.7016260112645147 2 15.056399311746311 8.3620262095188238 2 31.118926687706651 6.5504399661006625 2 55.437988368869732 1.2 2 57.415654371220654 2.5668973427374602 2 67.486932813295127 13.23307225162271 2 83.4984483300574 9.214185903079942 2 82.87537545907395 3.3212333463786412 2 88.637726396932607 5.8383466267658752 2 90.907257350627077 7.1952364856958306 2 98.8 2.5575340725345672 2 16.815393645407262 8.1594865339465645 2 29.373733727189482 1.2 2 57.448886660173009 4.2415744896885581 2 58.455787760448224 7.0550886241081674 2 65.705665197511834 4.9341875092032597 2 86.862808669044909 3.4582180912095954 2 89.897555246430088 3.1713913894505872 2 89.951062090861882 10.89366789766812 2 96.555381701088393 4.1624599920348953 2 9.1026560234036804 7.3506070095026566 2 12.327753375533826 7.0105291923195008 2 32.668770210546725 5.5370685162611277 2 52.742814343722955 2.9054236770165685 2 59.993821036284942 4.7341758718513667 2 63.811141730193299 6.7167057291378374 2 81.151301499536444 11.804579107120784 2 85.768415580052192 6.6888940305237581 2 85.054808909717266 9.5915320653339595 2 93.644356635655669 3.3684360682925378 2 98.8 3.6503332368627404 2 16.661416512069351 3.0240674641378655 2 31.598809013972396 4.6300228959001828 2 54.995433065868795 7.1440167513741759 2 61.405381495024464 4.1915969819431238 2 63.837409693022082 3.5102470419349769 2 86.89753962105101 2.3397444886705485 2 89.937424709904249 1.2 2 88.632685688841121 13.690193406003766 2 96.8578963900746 8.3733498814176226 2 6.2484708409673777 6.1117690389738941 2 13.828838235813041 9.9565661685314115 2 30.952577537826631 8.4078715393141703 2 55.403779673361598 2.6998311404139326 2 57.750474108496583 1.2 2 63.126663029893791 13.03378342326997 2 82.842061596648833 11.154269909437746 2 85.3137447131557 1.2 2 86.577804881228502 7.8502587377373532 2 90.265731517088184 8.8548003655075416 2 97.361199885184803 2.0178813849907082 2 15.742123384354548 10.215137581205976 2 31.025660762396441 2.6254509420887726 2 57.071608929219593 7.770461926331965 2 56.924455412394664 10.139139455436259 2 67.155217996825144 4.5532128379319232 2 86.885248375091308 5.6623086214964875 2 89.806634723732799 4.4665444320985328 2 86.679106656726816 9.4468933305593445 2 96.930493945476314 5.4246296524252982 2 10.737344144960577 10.309091882184097 2 8.6177633698791087 5.6801749482566919 2 34.262237845294678 6.6211714566795861 2 53.441686274000261 1.2 2 58.265197102676424 5.7535939264357978 2 64.825862288415877 9.4583712410633023 2 78.664488710247127 11.697473001390509 2 85.233263877683285 5.5557585541840737 2 83.684654094632535 7.228979707827178 2 91.319667128124223 4.0713176437169061 2 98.172387660188562 5.7419280839473492 2 18.978415838339973 5.6217512521361011 2 29.568452525127057 6.4500687136037769 2 54.768805521900944 9.9758424534639492 2 61.043173346768128 7.7773719105623833 2 62.863411076536096 4.6803429280585416 2 84.605034331288053 2.6712553554184981 2 88.671349044469821 1.2 2 90.722171123740054 14.660879339595406 2 98.8 9.2659177821622318 2 6.1961209612812773 3.6250282553353643 2 13.74839654405506 7.3490002441829931 2 30.299305657267269 4.838312777830482 2 56.58224960121548 1.2 2 58.920748396710081 1.2 2 67.930608430247602 11.430494073737382 2 81.936254357386119 9.4785326358710176 2 83.812819326045414 4.0367217414755139 2 89.692172250917636 6.5479550555635111 2 91.72714251185073 5.821032841308357 2 96.758992999692779 2.9588022829728584 2 17.424792985721385 6.753774126717734 2 30.719030544914066 1.2 2 56.261179351599907 5.0208465234756376 2 59.576409941751827 8.3374427754393032 2 66.28333951450729 6.4074531933205607 2 88.224674502574643 3.0612589924507607 2 88.617303526716213 4.4783028658047233 2 88.88872672293499 9.7055203539104404 2 97.714835363567815 3.7937869329360199 2 10.644866491436213 8.1710138595218176 2 10.858282910047707 6.1608852279518276 2 32.659148413311939 7.3089321634466504 2 53.930606976226194 3.5995519799476883 2 61.098741064136931 5.7483056063375457 2 64.729649606642226 6.0561007298855216 2 80.261953085474801 10.276599291040336 2 87.742140550189447 6.7903363378104453 2 85.986889686685629 11.273005275461712 2 92.59432773656988 3.6089108916795491 2 98.8 4.955745095384037 2 </DataArray>
<DataArray Name="forces" NumberOfComponents="3" format="ascii" type="Float32">-0.86608872369235979 -0.077618940082858245 0.0 -0.2052679045105574 0.082184098644048825 0.0 -0.4364061737608172 0.15659410169821028 0.0 -0.18686236540501266 0.15347747321354399 0.0 -0.009127390084503452 0.058021425001247795 0.0 0.0038822981174141818 0.60091124612800884 0.0 -0.22627420449560903 0.26521615533475262 0.0 -0.13521057880434817 0.35632146268597209 0.0 -0.11627310658195814 0.23092016034168381 0.0 -0.11432634320066973 0.1017164059571819 0.0 -0.022166679216941709 0.047027928168948435 0.0 -0.060058329099480626 -1.5007942296841699 0.0 -0.16404835095215728 0.24884929388943489 0.0 -0.2566270501210442 0.58463267615045189 0.0 -0.041325526477695163 0.35839761635917888 0.0 -0.25760555746284897 0.4433138634913556 0.0 -0.010309661667519732 0.010489944537013379 0.0 0.11290922983625595 0.52677779229174571 0.0 -0.10443410611420181 0.1353432017411107 0.0 -0.0086038035038557975 0.03588989475860993 0.0 -0.019579531463546379 0.17408956096720984 0.0 0.14489730483365815 0.66944684995685266 0.0 -0.018947536795729691 0.63219547442969093 0.0 -0.14000594492835972 -1.5506599961561727 0.0 -0.04354391348170214 0.30098016098051378 0.0 -0.075520205500642701 0.27961828028582791 0.0 2.2611825871833422 -1.4150513571024872 0.0 0.10217380665162623 0.64647992605561844 0.0 -0.05483846900705891 -1.3966651382829647 0.0 -0.13310484310956106 0.33186900766876704 0.0 -0.017677086473624204 0.36321183994154971 0.0 0.037768300956714018 0.017833203709300527 0.0 -0.18078047787555235 0.21041159619459135 0.0 0.021749955275908284 0.13831855119883807 0.0 -0.0015672036399001499 0.51820926774862963 0.0 -0.0096179621961058753 0.39640300767303904 0.0 -0.22944091837623318 0.014461208485872151 0.0 -0.23556254079040484 0.016394435500606264 0.0 0.13571935478879754 0.39352873181015391 0.0 -0.061759206885238283 -0.10170755048877023 0.0 -0.056382902164826609 0.3798624593458273 0.0 -0.14216863361682286 0.37277840421194508 0.0 -0.10054126681705822 0.31490636558903196 0.0 -0.14745022112257067 0.18560186485510682 0.0 -0.095233221460807704 0.26326513648910438 0.0 0.043638143255876324 0.20510717205437878 0.0 1.4190315205763939 0.23155608031275876 0.0 -0.10862239908605023 0.11090493912823485 0.0 -0.10391440457503565 0.32703375299560167 0.0 -0.03057869150158446 0.62902744858170934 0.0 -0.00039763851528218375 0.17579627341634052 0.0 0.077101578148250152 -0.034601304451752045 0.0 -0.16993736684286953 0.14339886227631657 0.0 -0.033471559494465924 -1.6672546025670338 0.0 -0.12341574204899437 0.36742979346873739 0.0 1.0098794692771547 0.19963212711951051 0.0 -0.084408824938065896 0.18391755024319284 0.0 -0.057287766697329601 0.29963838472842691 0.0 0.036215032210419329 0.29667930554596461 0.0 0.037955754488314231 -1.5714688166103712 0.0 0.025204565598415163 0.23734235467956269 0.0 -0.091864340359205765 0.56747905507344232 0.0 -0.091424806757563037 0.32564535710141096 0.0 0.034895904630377228 0.056878225092544921 0.0 -0.043695809356948168 0.25865086236351764 0.0 -0.04718724496391391 0.2847700025536215 0.0 2.0597018222969212 0.070452014571535493 0.0 0.14688688910685505 0.70821916231005788 0.0 -0.03817548181514252 -1.3075622699174265 0.0 -0.080900734618210901 0.24248638826389479 0.0 0.063115408343995594 0.21335825627571592 0.0 0.0064954372274648176 0.051976133250056122 0.0 -0.13450792905114456 0.11710931896993723 0.0 0.065375680845924433 0.10312671242084481 0.0 -0.10894383531642282 0.41959878995822653 0.0 0.13895042338184199 0.39724392102413592 0.0 -0.18338912653304318 0.32056664732087992 0.0 -0.14880494503832198 0.11335005192409636 0.0 0.082444353979286553 0.16636537641676719 0.0 -0.21389063507466577 0.12737571885577503 0.0 -0.041891462262811041 0.07803073763111934 0.0 0.040497322951041248 0.3219553963723385 0.0 -0.23323774791861102 0.76305908867713468 0.0 -0.10487433712561356 0.20442414812851661 0.0 -0.13057015546632142 0.37035523156557792 0.0 -0.064813812678048421 0.11446923022180117 0.0 1.839369914847806 0.062273621018273051 0.0 -0.0057080296960446697 0.19174416436932759 0.0 0.077266741491514801 0.25372317159719238 0.0 -0.034210319392081467 0.2044909622485892 0.0 -0.054441766211881987 0.19094636211166804 0.0 0.06273284143992397 -0.20620267107597384 0.0 -0.08612676168194433 0.10967575790102302 0.0 -0.033637257380141783 -1.8062357548844932 0.0 -0.058001118211221545 0.57971993219436579 0.0 0.2594812287216417 0.25789234593037696 0.0 -0.18938841581006574 0.25387481435503556 0.0 -0.072276773807182892 0.59768685874593652 0.0 0.067091681158474525 0.29844370911307283 0.0 -0.21107670583835958 0.26489217798180359 0.0 -0.084319595163401706 -1.4304077926560073 0.0 -0.18132908932340447 0.60695694953457668 0.0 -0.10601279259328372 0.31824947425039857 0.0 -0.1065677818026296 -1.4776157445098348 0.0 -0.10621572206932384 0.35625215629699458 0.0 -0.016801882513026278 0.33945859230302439 0.0 -0.13822699706794908 0.12608965251986681 0.0 -0.030623050300381593 0.52186767029191938 0.0 0.11339272264663337 0.15872157842390922 0.0 0.023069396675847863 0.37676404888892884 0.0 -0.14122589222510151 0.40650060884887534 0.0 0.010728769045333302 0.12927429750233521 0.0 -0.14469539003936105 0.24625764843030162 0.0 -0.091515546730411623 0.23235434939426541 0.0 -0.056775620228256912 0.37426992468022691 0.0 0.043584994038223246 0.29128491166148213 0.0 -0.07187780648924956 0.5845431024093074 0.0 -0.19110146197983108 0.24039488579843221 0.0 0.030209867075015662 0.27187451371856758 0.0 -0.13217313336541744 -1.3915411425306752 0.0 -0.16049099316064064 0.29273213266892656 0.0 -0.099094356243104059 0.15455459440960845 0.0 0.039874648993383194 0.50200700788611108 0.0 -0.2324179600266725 0.17385776458342109 0.0 -0.08231856315099513 0.28211337628357713 0.0 0.03072914271975713 0.14998010442303794 0.0 0.27035439222956992 0.495386136826095 0.0 -0.06581421491576317 0.082350377598159108 0.0 0.10300979976314473 0.1916140515928591 0.0 -0.15418865683845942 0.59576371013615836 0.0 -0.079106793291691457 0.41051187929480398 0.0 0.054483255161183089 0.18729967072084946 0.0 -0.058026546658596689 0.054631188349674065 0.0 0.020105109549638081 -1.8366688561728555 0.0 0.097113970385131518 0.42350147711172897 0.0 0.76673657729179867 0.36390270059418139 0.0 -0.21345691720169763 0.010216205996617322 0.0 0.023335813496155496 0.154490062228617 0.0 0.084586001698356228 0.076176923589989731 0.0 -0.045596385992541899 -1.370711178572763 0.0 -0.090180604932903918 -1.3945164206435232 0.0 0.11446724743377162 0.5168382621534916 0.0 -0.096480599363838293 0.43658517223388571 0.0 -0.17272671286185703 0.14762070758690282 0.0 -0.00040416348830429882 0.25236342989316635 0.0 -0.026911450552562943 0.2062070509622797 0.0 -0.12132951379649692 0.20855649302296597 0.0 -0.19024157567682115 0.16459719269393619 0.0 -0.041851792150523509 -1.2089519673823059 0.0 -0.074744142087594168 0.22135244853299396 0.0 -0.066375598746234776 0.28535528946085947 0.0 -0.062208235740481288 0.22036178024004993 0.0 -0.087065720489447551 0.23044868705318922 0.0 -0.099588799230710789 0.23396242651464705 0.0 -0.071323253630666772 0.3151064050074156 0.0 0.010881395448878783 0.1722473350087953 0.0 -0.14611344557100758 0.415187372123203 0.0 -0.27502133917229138 0.22668250734950829 0.0 0.059673033481328575 0.38194986967309841 0.0 -0.11885155939526415 0.04115329213922847 0.0 -0.094281545407053358 0.23494732961113754 0.0 -0.080949678394223179 0.0416897730057329 0.0 -0.0018099389952296319 0.33298375656499579 0.0 -0.10625435299250313 0.23030308361308607 0.0 -0.026036350101109274 0.30454343804123918 0.0 -0.043071119277968077 0.15458204208669135 0.0 1.9167515933465102 -0.080410090357799779 0.0 </DataArray>
<DataArray Name="radii" format="ascii" type="Float32">1.2 1.2 1 1.2 1.2 1.2 1 1.2 1.2 1.2 1.2 1.2 1.2 1.2 1.2 1.2 1.2 1.2 1 1.2 1.2 1.2 1.2 1.2 1.2 1.2 1.2 1.2 1.2 1.2 1.2 1.2 1.2 1.2 1.2 1.2 1.2 1.2 1.2 1.2 1.2 1.2 1.2 1.2 1.2 1.2 1.2 1.2 1.2 1.2 1.2 1.2 1.2 1.2 1.2 1.2 1.2 1.2 1.2 1.2 1.2 1.2 1.2 1.2 1.2 1.2 1.2 1.2 1.2 1.2 1.2 1.2 1.2 1.2 1.2 1.2 1.2 1.2 1.2 1.2 1.2 1.2 1.2 1.2 1.2 1.2 1.2 1.2 1.2 1.2 1.2 1.2 1.2 1.2 1.2 1.2 1.2 1.2 1.2 1.2 1.2 1.2 1.2 1.2 1.2 1.2 1.2 1.2 1.2 1.2 1.2 1.2 1.2 1.2 1.2 1.2 1.2 1.2 1.2 1.2 1.2 1.2 1.2 1.2 1.2 1.2 1.2 1.2 1.2 1.2 1.2 1.2 1.2 1.2 1.2 1.2 1.2 1.2 1.2 1.2 1.2 1.2 1.2 1.2 1.2 1.2 1.2 1.2 1.2 1.2 1.2 1.2 1.2 1.2 1.2 1.2 1.2 1.2 1.2 1.2 1.2 1.2 1.2 1.2 1.2 1.2 1.2 </DataArray>
</PointData>
<CellData/>
</Piece>
</UnstructuredGrid>
</VTKFile>
