<?xml version="1.0" ?>
<VTKFile byte_order="LittleEndian" type="UnstructuredGrid" version="0.1">
<UnstructuredGrid>
<Piece NumberOfCells="0" NumberOfPoints="8">
<Points>
<DataArray NumberOfComponents="3" format="ascii" type="Float32">13.720854510509406 4.4188092643849526 2 23.779281866992932 1.5999999999999999 2 45.492969313219177 4.3519141032388839 2 76.356378234776429 1.5999999999999999 2 12.398194361129347 1.5999999999999999 2 22.306974635815902 4.3772569213419583 2 44.077002412126127 1.5999999999999999 2 77.920771931438651 4.3079069967277759 2 </DataArray>
</Points>
<Cells>
<DataArray Name="connectivity" format="ascii" type="Int32">0</DataArray>
<DataArray Name="offsets" format="ascii" type="Int32">0</DataArray>
<DataArray Name="types" format="ascii" type="UInt8">1</DataArray>
</Cells>
<PointData>
<DataArray Name="Points" NumberOfComponents="3" format="ascii" type="Float32">13.720854510509406 4.4188092643849526 2 23.779281866992932 1.5999999999999999 2 45.492969313219177 4.3519141032388839 2 76.356378234776429 1.5999999999999999 2 12.398194361129347 1.5999999999999999 2 22.306974635815902 4.3772569213419583 2 44.077002412126127 1.5999999999999999 2 77.920771931438651 4.3079069967277759 2 </DataArray>
<DataArray Name="forces" NumberOfComponents="3" format="ascii" type="Float32">0.023949221559458618 0.10355775651943168 0.0 0.046897140579029079 -0.16238633023265309 0.0 0.0060221104435824041 0.096103527168928948 0.0 0.0042435393902360286 -0.064254113156800102 0.0 0.018999469824793724 -0.078608680888650195 0.0 0.023482558111605229 0.099510926335704325 0.0 0.030141210768778542 -0.085198015858046247 0.0 0.01417816565294025 0.1024436113796213 0.0 </DataArray>
<DataArray Name="radii" format="ascii" type="Float32">1.5999999999999999 1.5999999999999999 1.5999999999999999 1.5999999999999999 1.5999999999999999 1.5999999999999999 1.5999999999999999 1.5999999999999999 </DataArray>
</PointData>
<CellData/>
</Piece>
</UnstructuredGrid>
</VTKFile>
