<?xml version="1.0" ?>
<VTKFile byte_order="LittleEndian" type="UnstructuredGrid" version="0.1">
<UnstructuredGrid>
<Piece NumberOfCells="0" NumberOfPoints="16">
<Points>
<DataArray NumberOfComponents="3" format="ascii" type="Float32">3.6478484374218061 1.2500000000000002 2 7.0811234198176285 1.2500000000000002 2 16.405601881237594 1.2500000000000002 2 18.899716775859606 1.2500000000000002 2 21.392710611260707 1.2500000000000002 2 35.113983676556103 1.2500000000000002 2 37.963278729826463 1.2500000000000002 2 41.267033638574581 1.2500000000000002 2 49.386351884607663 1.2500000000000002 2 51.839505204802542 1.2500000000000002 2 54.257039456266256 1.2500000000000002 2 65.15595296624636 1.2500000000000002 2 73.428927339935598 1.2771262891237434 2 77.965213673393208 1.2500000000000002 2 80.422403669213239 1.2500000000000002 2 92.171398624443754 1.2500880249618269 2 </DataArray>
</Points>
<Cells>
<DataArray Name="connectivity" format="ascii" type="Int32">0</DataArray>
<DataArray Name="offsets" format="ascii" type="Int32">0</DataArray>
<DataArray Name="types" format="ascii" type="UInt8">1</DataArray>
</Cells>
<PointData>
<DataArray Name="Points" NumberOfComponents="3" format="ascii" type="Float32">3.6478484374218061 1.2500000000000002 2 7.0811234198176285 1.2500000000000002 2 16.405601881237594 1.2500000000000002 2 18.899716775859606 1.2500000000000002 2 21.392710611260707 1.2500000000000002 2 35.113983676556103 1.2500000000000002 2 37.963278729826463 1.2500000000000002 2 41.267033638574581 1.2500000000000002 2 49.386351884607663 1.2500000000000002 2 51.839505204802542 1.2500000000000002 2 54.257039456266256 1.2500000000000002 2 65.15595296624636 1.2500000000000002 2 73.428927339935598 1.2771262891237434 2 77.965213673393208 1.2500000000000002 2 80.422403669213239 1.2500000000000002 2 92.171398624443754 1.2500880249618269 2 </DataArray>
<DataArray Name="forces" NumberOfComponents="3" format="ascii" type="Float32">5.6256194133121008e-05 -0.0016442544975235176 0.0 -3.0028440848787032e-05 -0.003095050490970053 0.0 -0.0048964924055223055 -0.0059216150315624435 0.0 -0.0037124932534093324 -0.0038374967021061971 0.0 0.0009417193841278048 -0.011474607768939264 0.0 0.00028440757632322848 -0.0028407756483262445 0.0 -0.0049014541404982645 -0.0054219037790007403 0.0 0.0 0.0 0.0 -0.033287402803641654 -0.035905370906318824 0.0 -0.007644362753239875 0.0 0.0 -0.005306770816484549 -0.0011399577648328967 0.0 0.00065337581456712305 -0.015037259894468961 0.0 0.013079059027092395 0.0030184577495896443 0.0 -0.0039647635648867238 -0.016357898890864798 0.0 -0.022910417949523323 0.00089298012059695964 0.0 0.074138717578635063 0.00211804323099433 0.0 </DataArray>
<DataArray Name="radii" format="ascii" type="Float32">1.2500000000000002 1.2500000000000002 1.2500000000000002 1.2500000000000002 1.2500000000000002 1.2500000000000002 1.2500000000000002 1.2500000000000002 1.2500000000000002 1.2500000000000002 1.2500000000000002 1.2500000000000002 1.2500000000000002 1.2500000000000002 1.2500000000000002 1.2500000000000002 </DataArray>
</PointData>
<CellData/>
</Piece>
</UnstructuredGrid>
</VTKFile>
