<?xml version="1.0" ?>
<VTKFile byte_order="LittleEndian" type="UnstructuredGrid" version="0.1">
<UnstructuredGrid>
<Piece NumberOfCells="0" NumberOfPoints="87">
<Points>
<DataArray NumberOfComponents="3" format="ascii" type="Float32">1.2 1.2034989611819866 2 5.4032050566786296 4.5788514874572135 2 6.7170475909689209 2.9626455044595295 2 16.491681855104694 3.9362407626973646 2 30.260138926618307 3.4009620566359526 2 39.696561375384185 5.1867465855243955 2 42.419911633228701 3.7819026332437553 2 56.090366777675861 6.5697171321610934 2 62.454887374291516 4.5030718699253853 2 64.242141042673722 4.1087970103165325 2 78.090358681663687 5.2894000771570298 2 86.739099311150355 1 2 89.202649136527057 1.9407585609723907 2 88.828017418539403 11.060046392229662 2 97.731243539658266 6.147253344052225 2 8.4968290225785026 5.5845761176900304 2 13.017137359808247 7.2997903641242168 2 31.510927391515338 6.9709401432420073 2 41.712179866848338 5.4421992126756944 2 55.957653661740331 2.3646867880025675 2 59.26878457610043 2.1269792824052729 2 64.771020906724573 10.095546220139061 2 83.527902301692365 8.8893794128987338 2 84.65606354417433 1 2 88.222199652772332 6.4439124114080162 2 90.020014806404262 6.2710315030430612 2 98.841353157100826 1 2 16.695909243930565 7.7710262270784023 2 31.584933937897191 1.5997573256912725 2 57.740321800065381 5.1300740179676714 2 57.972934367561891 7.0428325948253594 2 66.437581603899687 3.4001834367706953 2 87.427212289355808 3.8199036955697476 2 90.521434930861602 4.4522913930945123 2 88.358579621825314 8.2829693093239349 2 96.533558580355717 4.6901535899805538 2 10.49482971503407 8.0901585398304334 2 10.884564599776098 4.2545219083253487 2 33.845116452089123 6.3088578847647518 2 54.583496930640294 1 2 58.834056569340554 3.6985071656483099 2 64.594442336120096 7.3103895507696421 2 80.205181846097716 7.7407886093948193 2 85.634915381261749 3.9223759509060629 2 85.538799734046933 6.5640723875544609 2 92.221776734191607 4.1425386820579169 2 98.383904593633304 4.5258283011060598 2 17.876132698114361 5.2310548816295865 2 29.429354683385782 5.9390832235465201 2 56.594828874758171 8.4481195772800177 2 61.087251731604709 5.6831618331277278 2 62.976455758978005 2.74520331489434 2 85.656655055605853 2.2166442557895532 2 88.448093641729571 1 2 90.659094734687386 10.439211197495027 2 99.0 7.2249866031669558 2 8.2817548412678192 3.83866047239301 2 14.852028401724164 7.0901336712749394 2 30.989714904019156 5.0488093579860838 2 56.285243440423102 1 2 57.900128607756834 1.16282737781695 2 66.789793862643805 10.372313951182846 2 83.83659909680101 7.0512914571705112 2 83.8187157488547 2.597587436625497 2 88.797192341208785 4.7060151407176214 2 91.751679063236935 5.7665215113684436 2 97.868499586981471 2.3198876271161764 2 16.18642454187686 5.8513071619676618 2 29.841243100663409 1 2 56.892955686472348 3.6339052986084299 2 59.450697624591491 5.9839014968675883 2 65.856129337814508 5.0198411124387006 2 87.464508819522464 2.4383105766516562 2 89.815761027777498 3.0848165015620577 2 90.057138092336061 8.6234172711505916 2 96.764717491047662 3.2027562685864686 2 10.196613511479217 6.1988009642435893 2 12.020862223584327 5.7529347803999897 2 32.533667597916839 5.3831058197926467 2 53.976109993838939 2.4910578797753242 2 60.572586279719104 4.0463935058575533 2 64.138421229470126 5.7040045507322104 2 81.180775783019698 9.3247601702851934 2 86.779008671720518 5.3718944236669772 2 86.61576936730728 8.0181101137545436 2 93.49852147637371 3.0544881674327931 2 99.0 3.0070753495325122 2 </DataArray>
</Points>
<Cells>
<DataArray Name="connectivity" format="ascii" type="Int32">0</DataArray>
<DataArray Name="offsets" format="ascii" type="Int32">0</DataArray>
<DataArray Name="types" format="ascii" type="UInt8">1</DataArray>
</Cells>
<PointData>
<DataArray Name="Points" NumberOfComponents="3" format="ascii" type="Float32">1.2 1.2034989611819866 2 5.4032050566786296 4.5788514874572135 2 6.7170475909689209 2.9626455044595295 2 16.491681855104694 3.9362407626973646 2 30.260138926618307 3.4009620566359526 2 39.696561375384185 5.1867465855243955 2 42.419911633228701 3.7819026332437553 2 56.090366777675861 6.5697171321610934 2 62.454887374291516 4.5030718699253853 2 64.242141042673722 4.1087970103165325 2 78.090358681663687 5.2894000771570298 2 86.739099311150355 1 2 89.202649136527057 1.9407585609723907 2 88.828017418539403 11.060046392229662 2 97.731243539658266 6.147253344052225 2 8.4968290225785026 5.5845761176900304 2 13.017137359808247 7.2997903641242168 2 31.510927391515338 6.9709401432420073 2 41.712179866848338 5.4421992126756944 2 55.957653661740331 2.3646867880025675 2 59.26878457610043 2.1269792824052729 2 64.771020906724573 10.095546220139061 2 83.527902301692365 8.8893794128987338 2 84.65606354417433 1 2 88.222199652772332 6.4439124114080162 2 90.020014806404262 6.2710315030430612 2 98.841353157100826 1 2 16.695909243930565 7.7710262270784023 2 31.584933937897191 1.5997573256912725 2 57.740321800065381 5.1300740179676714 2 57.972934367561891 7.0428325948253594 2 66.437581603899687 3.4001834367706953 2 87.427212289355808 3.8199036955697476 2 90.521434930861602 4.4522913930945123 2 88.358579621825314 8.2829693093239349 2 96.533558580355717 4.6901535899805538 2 10.49482971503407 8.0901585398304334 2 10.884564599776098 4.2545219083253487 2 33.845116452089123 6.3088578847647518 2 54.583496930640294 1 2 58.834056569340554 3.6985071656483099 2 64.594442336120096 7.3103895507696421 2 80.205181846097716 7.7407886093948193 2 85.634915381261749 3.9223759509060629 2 85.538799734046933 6.5640723875544609 2 92.221776734191607 4.1425386820579169 2 98.383904593633304 4.5258283011060598 2 17.876132698114361 5.2310548816295865 2 29.429354683385782 5.9390832235465201 2 56.594828874758171 8.4481195772800177 2 61.087251731604709 5.6831618331277278 2 62.976455758978005 2.74520331489434 2 85.656655055605853 2.2166442557895532 2 88.448093641729571 1 2 90.659094734687386 10.439211197495027 2 99.0 7.2249866031669558 2 8.2817548412678192 3.83866047239301 2 14.852028401724164 7.0901336712749394 2 30.989714904019156 5.0488093579860838 2 56.285243440423102 1 2 57.900128607756834 1.16282737781695 2 66.789793862643805 10.372313951182846 2 83.83659909680101 7.0512914571705112 2 83.8187157488547 2.597587436625497 2 88.797192341208785 4.7060151407176214 2 91.751679063236935 5.7665215113684436 2 97.868499586981471 2.3198876271161764 2 16.18642454187686 5.8513071619676618 2 29.841243100663409 1 2 56.892955686472348 3.6339052986084299 2 59.450697624591491 5.9839014968675883 2 65.856129337814508 5.0198411124387006 2 87.464508819522464 2.4383105766516562 2 89.815761027777498 3.0848165015620577 2 90.057138092336061 8.6234172711505916 2 96.764717491047662 3.2027562685864686 2 10.196613511479217 6.1988009642435893 2 12.020862223584327 5.7529347803999897 2 32.533667597916839 5.3831058197926467 2 53.976109993838939 2.4910578797753242 2 60.572586279719104 4.0463935058575533 2 64.138421229470126 5.7040045507322104 2 81.180775783019698 9.3247601702851934 2 86.779008671720518 5.3718944236669772 2 86.61576936730728 8.0181101137545436 2 93.49852147637371 3.0544881674327931 2 99.0 3.0070753495325122 2 </DataArray>
<DataArray Name="forces" NumberOfComponents="3" format="ascii" type="Float32">-0.35954904675173838 0.019125533779963066 0.0 -0.013538968618601779 0.15218388203095357 0.0 -0.15133189748369344 0.0076979451840552965 0.0 -0.023445083476093947 0.083649293013541029 0.0 0.07636454943765128 -0.20986635736381357 0.0 0.012493249745836012 0.11858106274237187 0.0 -0.051008005372968429 0.054107568411582263 0.0 0.054439000326334114 -0.0013986722994894923 0.0 -0.0012115783367615974 0.0014006779709679756 0.0 -0.011068548053400094 -0.002424847952519904 0.0 -0.0499932329934695 -0.10137057992875355 0.0 -0.22886215035115515 -0.64562576252630222 0.0 0.015241248762603521 0.14272141530174864 0.0 -0.072212778714801223 0.025117052035299698 0.0 -0.051258678324861529 0.099495687655045684 0.0 -0.16193808724264405 0.18838659560700269 0.0 -0.066476142636292063 0.15905754966922034 0.0 0.041308501448158993 0.03395437948764269 0.0 0.047080173831938278 0.21628978176310915 0.0 -0.26496908475365222 0.1414275855369741 0.0 0.049856359870878941 0.12859121841345453 0.0 -0.09452940312088022 0.14084051024396829 0.0 -0.024198754030998137 0.13852310383053956 0.0 0.13985112243025019 -0.52227289838302648 0.0 -0.10222632370435364 0.1457916947109193 0.0 -0.1037877238425423 0.083189095513012776 0.0 0.25878325576861794 -0.3118458432846215 0.0 0.038220058314884141 0.026038255839601794 0.0 0.019384126439075583 -0.021934840111072634 0.0 -0.029162690416841122 0.33788562110477921 0.0 -0.1010516155025471 0.15841714040941951 0.0 0.038781931735737463 0.0075138570749284928 0.0 -0.013135459820858633 0.12411276198053894 0.0 0.095393696165878117 0.18377391394472506 0.0 -0.010071325846934043 0.13847794972243194 0.0 0.12967331026420464 0.049572126381471349 0.0 0.015261417076056277 0.094293711865079163 0.0 -0.13717576737967913 0.028313582035121368 0.0 0.05334247514580498 0.082009987662814976 0.0 0.0046351886077026783 -0.4063463147832771 0.0 -0.20823533625039953 0.15927680147392875 0.0 -0.048122462986779121 0.11009472990226829 0.0 -0.045340328964832539 0.15384545255662799 0.0 0.039603309415929988 0.078969952194883147 0.0 -0.094230520513829685 -0.031155191830895795 0.0 0.086774077736991029 0.10938820255995904 0.0 0.091627851697138524 0.080008572699718561 0.0 0.069052425900983344 0.032895853046028753 0.0 -0.072043618147034874 0.17934797067088232 0.0 0.00772608944041632 0.069509129294954675 0.0 -0.053594581532679431 0.093484899935134896 0.0 0.031946097251735639 -0.10304158743263467 0.0 -0.032644614525063481 0.29061535035872571 0.0 -0.053885714262298628 -0.83884182324929135 0.0 0.031943610612737088 0.10585121891993043 0.0 0.32602324673898303 0.12445447818735327 0.0 0.0072058871695377114 -0.024874382850113064 0.0 -0.0086977041534417043 0.09374552321282266 0.0 -0.16714820922074786 -0.014373773112713623 0.0 0.056852277878514157 -0.65377540030982273 0.0 0.09303399332735246 -0.14819316212915273 0.0 0.0 0.0 0.0 -0.10635965040337013 0.091543088461196756 0.0 -0.087672256906691531 0.037834115909000765 0.0 0.077532623818557023 0.13747170722642504 0.0 0.014643902133456236 0.14867779177720955 0.0 -0.040341031034077823 -0.064345872254146008 0.0 -0.012190165584882479 0.042588239210959278 0.0 -0.047964821927564391 -0.18209618945346401 0.0 0.18089370980222749 0.11387100195707117 0.0 -0.13211995307358215 -0.019842094497023857 0.0 -0.040580903006086244 0.067385666475359873 0.0 0.054883821475791711 0.018619922305031733 0.0 -0.0083185667347541944 0.19375373814719687 0.0 0.059933384624936442 0.11604440411098726 0.0 -0.0090332619825095328 -0.019867027244371241 0.0 0.059449533433349494 0.011634600753333946 0.0 0.089872562628693448 -0.030967633384337674 0.0 -0.062778677973576169 -0.064575882262689954 0.0 0.117440263195733 0.077274081805926154 0.0 -0.0013297133591324284 -0.005586626298360764 0.0 -0.034112135157458284 0.035903176267205114 0.0 0.074844007765878309 0.12392646743241029 0.0 0.016275984106276675 0.10050027475345091 0.0 -0.12682235097794442 0.12554261848200393 0.0 0.063668547020797772 -0.0020852069993664776 0.0 0.72872507216749427 0.017203207926907105 0.0 </DataArray>
<DataArray Name="radii" format="ascii" type="Float32">1.2 1.2 1 1 1 1.2 1 1 1 1 1 1 1 1 1 1 1 1 1 1 1 1 1 1 1 1 1 1 1 1 1 1 1 1 1 1 1 1 1 1 1 1 1 1 1 1 1 1 1 1 1 1 1 1 1 1 1 1 1 1 1 1 1 1 1 1 1 1 1 1 1 1 1 1 1 1 1 1 1 1 1 1 1 1 1 1 1 </DataArray>
</PointData>
<CellData/>
</Piece>
</UnstructuredGrid>
</VTKFile>
