<?xml version="1.0" ?>
<VTKFile byte_order="LittleEndian" type="UnstructuredGrid" version="0.1">
<UnstructuredGrid>
<Piece NumberOfCells="0" NumberOfPoints="16">
<Points>
<DataArray NumberOfComponents="3" format="ascii" type="Float32">3.448584942057642 1.1500000000000001 2 7.1147744037347707 1.1500000000000001 2 16.946161836772287 1.1500000000000001 2 19.373831200940955 1.1500000000000001 2 21.671723069877309 1.1500000000000001 2 34.744110350534662 1.1500000000000001 2 37.997370982730004 1.1500000000000001 2 41.161329734603825 1.1500000000000001 2 49.823151352895401 1.1500000000000001 2 52.07605749528372 1.1500000000000001 2 54.307476066265131 1.1500000000000001 2 65.351582712195921 1.1500000000000001 2 72.829968146668676 1.1500000000000001 2 78.472239864603935 1.1500000000000001 2 80.59484283927182 1.1500000000000001 2 91.774636633537526 1.1500000000000001 2 </DataArray>
</Points>
<Cells>
<DataArray Name="connectivity" format="ascii" type="Int32">0</DataArray>
<DataArray Name="offsets" format="ascii" type="Int32">0</DataArray>
<DataArray Name="types" format="ascii" type="UInt8">1</DataArray>
</Cells>
<PointData>
<DataArray Name="Points" NumberOfComponents="3" format="ascii" type="Float32">3.448584942057642 1.1500000000000001 2 7.1147744037347707 1.1500000000000001 2 16.946161836772287 1.1500000000000001 2 19.373831200940955 1.1500000000000001 2 21.671723069877309 1.1500000000000001 2 34.744110350534662 1.1500000000000001 2 37.997370982730004 1.1500000000000001 2 41.161329734603825 1.1500000000000001 2 49.823151352895401 1.1500000000000001 2 52.07605749528372 1.1500000000000001 2 54.307476066265131 1.1500000000000001 2 65.351582712195921 1.1500000000000001 2 72.829968146668676 1.1500000000000001 2 78.472239864603935 1.1500000000000001 2 80.59484283927182 1.1500000000000001 2 91.774636633537526 1.1500000000000001 2 </DataArray>
<DataArray Name="forces" NumberOfComponents="3" format="ascii" type="Float32">0.031646934314927155 -0.057237001915785492 0.0 -0.016827003359787665 -0.12819700267984185 0.0 0.034794799915090165 -0.084207950732151926 0.0 -0.0043118273691962195 0.0 0.0 0.0043118273691962195 0.0 0.0 -0.0028994412033047177 -0.029379707470161963 0.0 0.00085071025875620675 -0.01536786871394011 0.0 -0.017492810682107354 -0.067952034693309099 0.0 -0.026471620497972914 -0.042998328632882866 0.0 -0.015189123315053621 0.0 0.0 -0.028554142940618019 -0.016118592799021867 0.0 0.051857082034030055 -0.15188519304172154 0.0 0.12554346225302052 -0.10332862844975715 0.0 -0.052694771301254689 -0.022819674461108497 0.0 -0.029041370411508588 -0.038341835327193256 0.0 0.0 0.0 0.0 </DataArray>
<DataArray Name="radii" format="ascii" type="Float32">1.1500000000000001 1.1500000000000001 1.1500000000000001 1.1500000000000001 1.1500000000000001 1.1500000000000001 1.1500000000000001 1.1500000000000001 1.1500000000000001 1.1500000000000001 1.1500000000000001 1.1500000000000001 1.1500000000000001 1.1500000000000001 1.1500000000000001 1.1500000000000001 </DataArray>
</PointData>
<CellData/>
</Piece>
</UnstructuredGrid>
</VTKFile>
