<?xml version="1.0" ?>
<VTKFile byte_order="LittleEndian" type="UnstructuredGrid" version="0.1">
<UnstructuredGrid>
<Piece NumberOfCells="0" NumberOfPoints="62">
<Points>
<DataArray NumberOfComponents="3" format="ascii" type="Float32">0 0 0 9.4707764261447362 1.2 2 18.716380854645212 4.0870438463539474 2 21.860740809903518 7.3234756394148768 2 24.238025848004778 1.2 2 26.467658351109588 1.9765068928409684 2 35.015147060449976 4.2012365089073729 2 37.239234324083696 3.7848744183620107 2 45.868405539999934 2.132309590034144 2 49.19304384690804 5.9585715478362582 2 53.959402080381516 6.693873777973649 2 62.732767833044363 2.2479066829819443 2 67.765355914665193 4.8777589152814906 2 69.911865529177462 4.7201198407786613 2 74.450403170169665 6.176575038976817 2 76.137763476254094 3.178889051699112 2 82.250867881549937 4.7005839874382787 2 93.419649002905558 5.4540201194414593 2 95.992239512098223 1.2798487740138793 2 14.072027810508688 3.3954139702453534 2 22.340712635263674 5.2873026008112136 2 24.609858842119323 5.5994055393450877 2 27.701018496727386 4.106279763885019 2 33.6186489675557 1.2 2 44.94071356223926 4.2595505186679175 2 47.279411163236603 4.0186215985378082 2 53.575848939793353 4.6056266432589199 2 62.969858535236838 7.6320418452904786 2 68.349152444407636 2.769188422032784 2 70.395926006571671 2.6607439397216361 2 72.083373861301666 4.4701297045673734 2 75.898059518122949 1 2 82.722990910491532 1.2 2 94.070550977532079 7.6465313133011206 2 95.707070049664026 5.4680535512958635 2 11.493369629782359 2.1263933517318305 2 25.003109931462895 3.4393362080691769 2 28.379050766844657 1.2 2 34.81341407420058 6.6158528149394762 2 43.912919973594775 1.2 2 61.220829167948182 1.2 2 66.805311372315856 6.7876061247204298 2 69.140397654893277 6.8379848206653122 2 76.698018730979271 5.655389875807848 2 80.198472906494246 3.8422256441214375 2 94.614817816164262 3.3562017719464627 2 93.868848785686168 1.2 2 13.463263419505328 1.2 2 22.860890053649424 3.1307613350327279 2 26.71344357876205 6.2714742975388287 2 28.900397602651637 6.5185225264810907 2 32.070528029148207 2.6691693533839662 2 44.51276065682103 6.5541557224735465 2 49.617274142059983 3.7783893658290384 2 55.515618665445913 3.4397156383517542 2 61.173213864970222 6.3418296912202239 2 67.107838663839132 1.2 2 71.525664348964995 1.2 2 74.217911669274315 3.8913781472613382 2 83.694242307202131 3.1938359112656296 2 91.716478839100901 7.3422881941965068 2 97.10109566095278 7.3111722549356637 2 </DataArray>
</Points>
<Cells>
<DataArray Name="connectivity" format="ascii" type="Int32">0</DataArray>
<DataArray Name="offsets" format="ascii" type="Int32">0</DataArray>
<DataArray Name="types" format="ascii" type="UInt8">1</DataArray>
</Cells>
<PointData>
<DataArray Name="Points" NumberOfComponents="3" format="ascii" type="Float32">0 0 0 9.4707764261447362 1.2 2 18.716380854645212 4.0870438463539474 2 21.860740809903518 7.3234756394148768 2 24.238025848004778 1.2 2 26.467658351109588 1.9765068928409684 2 35.015147060449976 4.2012365089073729 2 37.239234324083696 3.7848744183620107 2 45.868405539999934 2.132309590034144 2 49.19304384690804 5.9585715478362582 2 53.959402080381516 6.693873777973649 2 62.732767833044363 2.2479066829819443 2 67.765355914665193 4.8777589152814906 2 69.911865529177462 4.7201198407786613 2 74.450403170169665 6.176575038976817 2 76.137763476254094 3.178889051699112 2 82.250867881549937 4.7005839874382787 2 93.419649002905558 5.4540201194414593 2 95.992239512098223 1.2798487740138793 2 14.072027810508688 3.3954139702453534 2 22.340712635263674 5.2873026008112136 2 24.609858842119323 5.5994055393450877 2 27.701018496727386 4.106279763885019 2 33.6186489675557 1.2 2 44.94071356223926 4.2595505186679175 2 47.279411163236603 4.0186215985378082 2 53.575848939793353 4.6056266432589199 2 62.969858535236838 7.6320418452904786 2 68.349152444407636 2.769188422032784 2 70.395926006571671 2.6607439397216361 2 72.083373861301666 4.4701297045673734 2 75.898059518122949 1 2 82.722990910491532 1.2 2 94.070550977532079 7.6465313133011206 2 95.707070049664026 5.4680535512958635 2 11.493369629782359 2.1263933517318305 2 25.003109931462895 3.4393362080691769 2 28.379050766844657 1.2 2 34.81341407420058 6.6158528149394762 2 43.912919973594775 1.2 2 61.220829167948182 1.2 2 66.805311372315856 6.7876061247204298 2 69.140397654893277 6.8379848206653122 2 76.698018730979271 5.655389875807848 2 80.198472906494246 3.8422256441214375 2 94.614817816164262 3.3562017719464627 2 93.868848785686168 1.2 2 13.463263419505328 1.2 2 22.860890053649424 3.1307613350327279 2 26.71344357876205 6.2714742975388287 2 28.900397602651637 6.5185225264810907 2 32.070528029148207 2.6691693533839662 2 44.51276065682103 6.5541557224735465 2 49.617274142059983 3.7783893658290384 2 55.515618665445913 3.4397156383517542 2 61.173213864970222 6.3418296912202239 2 67.107838663839132 1.2 2 71.525664348964995 1.2 2 74.217911669274315 3.8913781472613382 2 83.694242307202131 3.1938359112656296 2 91.716478839100901 7.3422881941965068 2 97.10109566095278 7.3111722549356637 2 </DataArray>
<DataArray Name="forces" NumberOfComponents="3" format="ascii" type="Float32">0 0 0 -0.08836237806439029 -0.18227545731645672 0.0 0.045683538233257888 0.013602186331792183 0.0 -0.02741714486895902 0.11084146353917233 0.0 -0.027934928042117838 -0.087895165844797937 0.0 -0.044311073307525262 -0.09406071962839424 0.0 0.062248091187238952 -0.018726536082124098 0.0 0.047422279568410011 -0.012817518878351319 0.0 -0.021343255834542385 0.062136998684905985 0.0 0.0 0.0 0.0 0.013298984517156888 0.078433289151836977 0.0 -0.035971579857562885 0.072017190576847134 0.0 -0.013294511412245698 0.14152715661718301 0.0 0.020591103088338628 0.14804254823024315 0.0 -0.08307892821415476 0.13182624027895617 0.0 0.037255091958625738 0.032281364522910236 0.0 -0.0040327564904263646 0.14806673421755118 0.0 -0.023290935547783359 0.11306029760565822 0.0 0.03603398919660631 -0.029766323801193085 0.0 0.0043523856878222855 0.073008811207759039 0.0 -0.12919482037914246 0.059814888864819477 0.0 -0.11455858144628785 0.17047932662859938 0.0 -0.10264981612954127 0.017711256539420947 0.0 -0.027014671214153213 -0.21388493418346857 0.0 0.014603595395609363 0.065322940544130195 0.0 0.028646213835157711 0.037214697108350271 0.0 -0.12848471218306953 0.09440675814084068 0.0 0.015454734004140783 0.14574749281795876 0.0 0.028021545566346728 0.10552151468310278 0.0 0.071040989955999334 0.13880837419746139 0.0 0.034130102572789534 0.0282442259201163 0.0 0.033708340628715805 -0.1604330929568033 0.0 0.0032298634044887059 -0.20430281890717678 0.0 0.062062533235844083 0.11797958759370093 0.0 0.00053311413012659126 0.078491260519737302 0.0 -0.058051354593693177 0.027703021563267038 0.0 0.045851744001362854 0.10687361642320024 0.0 0.059117593539842972 -0.13545624850677382 0.0 0.0 0.0 0.0 -0.0088849208102975696 -0.26059757310937542 0.0 -0.033218479773195086 -0.3203232028348092 0.0 0.023310174948964091 0.18984314891279053 0.0 0.01934878321189256 0.14724040080217465 0.0 -0.077518630621405238 0.03714110054441945 0.0 -0.0052676817584987046 0.03425251374086058 0.0 -0.033358895172799774 0.066723781168567614 0.0 -0.0044663254951618145 -0.16656346744390346 0.0 -0.0291407981652618 -0.24949832741213723 0.0 0.019942782964041367 0.052704643588608754 0.0 -0.023079155071614871 0.0613396670926636 0.0 0.010529352939303932 0.12262982436567549 0.0 0.014819394162601293 0.15293482865548347 0.0 -0.012119215429665946 0.065820934143583934 0.0 0.03486350239958079 0.026293286149377516 0.0 -0.075026018993132368 0.078654717290198239 0.0 -0.015256040814285082 0.15385946113745347 0.0 0.048990614919760755 -0.35388461059566667 0.0 -0.010033151474370727 -0.48022591151518984 0.0 0.06139204916830146 0.076169088285051451 0.0 -0.038290726797213348 0.027555448661934517 0.0 0.042877992336691657 0.1525154857001384 0.0 0.057467034131921405 0.076637860066082128 0.0 </DataArray>
<DataArray Name="radii" format="ascii" type="Float32">0 1.2 1.2 1 1.2 1.2 1.2 1.2 1.2 1 1 1.2 1.2 1.2 1.2 1 1.2 1.2 1.2 1.2 1.2 1.2 1.2 1.2 1.2 1.2 1.2 1.2 1.2 1.2 1.2 1 1.2 1.2 1.2 1.2 1.2 1.2 1.2 1.2 1.2 1.2 1.2 1.2 1.2 1.2 1.2 1.2 1.2 1.2 1.2 1.2 1.2 1.2 1.2 1.2 1.2 1.2 1.2 1.2 1.2 1.2 </DataArray>
</PointData>
<CellData/>
</Piece>
</UnstructuredGrid>
</VTKFile>
