<?xml version="1.0" ?>
<VTKFile byte_order="LittleEndian" type="UnstructuredGrid" version="0.1">
<UnstructuredGrid>
<Piece NumberOfCells="0" NumberOfPoints="87">
<Points>
<DataArray NumberOfComponents="3" format="ascii" type="Float32">1.2 1.2 2 5.0381357306084302 5.1296540684471559 2 5.6274033921039557 3.0102674821938664 2 16.697288061871255 3.6687887447609726 2 30.606657853439565 3.5498023322039698 2 39.766196219553173 5.8382455148976478 2 41.618652550310905 4.1788158249869181 2 55.634610716877866 7.8238915990423941 2 62.351698488639414 5.0414125561792336 2 64.24425845631319 4.2784625326198293 2 78.025002938770058 4.7188293466507796 2 86.402149232471317 1.5999999999999999 2 89.527381976495931 1.5999999999999999 2 87.736889551784884 12.211343125133723 2 97.084516809073037 7.344319545975643 2 7.0217886008572457 6.8700699724559469 2 12.484498550657012 9.336080932565773 2 31.977137778236504 8.3184979797953691 2 41.41050577637327 5.8179993569999624 2 55.818036311048452 3.2592448332358264 2 58.853656535252362 2.091586448628755 2 64.354864878952128 12.007327476895481 2 83.907495349730354 10.997992900824448 2 84.51121089234401 1.5999999999999999 2 87.697413333052509 7.6679044940541692 2 89.604251485514538 7.5040075540439295 2 98.4 1.5999999999999999 2 16.940603918506099 9.6573459394649159 2 31.79120951684159 1.5999999999999999 2 56.779821707155548 6.1759589694738803 2 57.973226087193424 8.9624712897873255 2 66.495738385556152 3.6603526009301075 2 87.579321499284276 4.5783198523920374 2 90.477880682201587 4.8937836687230272 2 87.818108050930761 9.7533096141050937 2 96.637236290383711 5.3627554090335083 2 9.7680914823575886 9.6718665326673072 2 10.114593888306489 4.9699658795732473 2 34.313236228330581 7.4539489608984022 2 54.067448549465091 1.5999999999999999 2 58.769963198619052 4.3622088114563446 2 64.550884499103546 8.126192678437576 2 79.001753736871009 9.6003794866858172 2 85.45146765768628 4.5891544743953414 2 84.896161707337825 7.3416476534141637 2 92.198907978822945 4.3751830346768958 2 98.4 5.7179016179331468 2 18.312972175287126 5.4015612516867959 2 29.483384480655641 7.3357741132312215 2 55.710968545778634 10.447523416291105 2 60.591292560889535 6.7305400148863326 2 63.108356232261315 3.165890034701512 2 85.277353522306285 2.9715920093876873 2 88.103776328614316 1.5999999999999999 2 90.681841697823813 12.647957120279186 2 98.4 7.9543227599307027 2 7.2238844616489137 4.2029710786863568 2 14.649380152719889 8.2159518315959694 2 30.753524033176955 5.5791124006107546 2 56.002186329950767 1.5999999999999999 2 57.723514242382812 1.5999999999999999 2 67.501003636774087 11.98758539889444 2 83.175269831230409 8.3749592527736851 2 83.10377572610679 3.4927138610510711 2 88.874931782470128 5.6192207822240041 2 91.457902698585599 6.5136714092932744 2 98.4 2.6939549729481 2 16.599130427172785 6.6752761361212647 2 29.91436892135345 1.5999999999999999 2 57.147795049546573 4.2716164869385356 2 58.774514225153283 6.8136507344263357 2 65.971782355928653 5.1676752072879291 2 87.547249419270813 3.135051003701383 2 89.778518422382916 3.3950714276501182 2 89.888700404963672 9.9465773342560997 2 96.406935633022329 3.7445764047631789 2 9.6507949342832475 7.0964286600251016 2 12.247394671352257 6.6942098230572018 2 32.569787854440214 5.8338614757475966 2 53.321693377046813 3.1535848044630286 2 60.474445011033865 4.5921653437100645 2 64.096134301675363 6.2315858761740266 2 81.312935593781603 10.627891713833993 2 86.500969410894058 6.3440559774939587 2 85.747911819460114 9.5262136048105646 2 93.27759274367763 3.4112044932729484 2 98.4 4.1749424125956587 2 </DataArray>
</Points>
<Cells>
<DataArray Name="connectivity" format="ascii" type="Int32">0</DataArray>
<DataArray Name="offsets" format="ascii" type="Int32">0</DataArray>
<DataArray Name="types" format="ascii" type="UInt8">1</DataArray>
</Cells>
<PointData>
<DataArray Name="Points" NumberOfComponents="3" format="ascii" type="Float32">1.2 1.2 2 5.0381357306084302 5.1296540684471559 2 5.6274033921039557 3.0102674821938664 2 16.697288061871255 3.6687887447609726 2 30.606657853439565 3.5498023322039698 2 39.766196219553173 5.8382455148976478 2 41.618652550310905 4.1788158249869181 2 55.634610716877866 7.8238915990423941 2 62.351698488639414 5.0414125561792336 2 64.24425845631319 4.2784625326198293 2 78.025002938770058 4.7188293466507796 2 86.402149232471317 1.5999999999999999 2 89.527381976495931 1.5999999999999999 2 87.736889551784884 12.211343125133723 2 97.084516809073037 7.344319545975643 2 7.0217886008572457 6.8700699724559469 2 12.484498550657012 9.336080932565773 2 31.977137778236504 8.3184979797953691 2 41.41050577637327 5.8179993569999624 2 55.818036311048452 3.2592448332358264 2 58.853656535252362 2.091586448628755 2 64.354864878952128 12.007327476895481 2 83.907495349730354 10.997992900824448 2 84.51121089234401 1.5999999999999999 2 87.697413333052509 7.6679044940541692 2 89.604251485514538 7.5040075540439295 2 98.4 1.5999999999999999 2 16.940603918506099 9.6573459394649159 2 31.79120951684159 1.5999999999999999 2 56.779821707155548 6.1759589694738803 2 57.973226087193424 8.9624712897873255 2 66.495738385556152 3.6603526009301075 2 87.579321499284276 4.5783198523920374 2 90.477880682201587 4.8937836687230272 2 87.818108050930761 9.7533096141050937 2 96.637236290383711 5.3627554090335083 2 9.7680914823575886 9.6718665326673072 2 10.114593888306489 4.9699658795732473 2 34.313236228330581 7.4539489608984022 2 54.067448549465091 1.5999999999999999 2 58.769963198619052 4.3622088114563446 2 64.550884499103546 8.126192678437576 2 79.001753736871009 9.6003794866858172 2 85.45146765768628 4.5891544743953414 2 84.896161707337825 7.3416476534141637 2 92.198907978822945 4.3751830346768958 2 98.4 5.7179016179331468 2 18.312972175287126 5.4015612516867959 2 29.483384480655641 7.3357741132312215 2 55.710968545778634 10.447523416291105 2 60.591292560889535 6.7305400148863326 2 63.108356232261315 3.165890034701512 2 85.277353522306285 2.9715920093876873 2 88.103776328614316 1.5999999999999999 2 90.681841697823813 12.647957120279186 2 98.4 7.9543227599307027 2 7.2238844616489137 4.2029710786863568 2 14.649380152719889 8.2159518315959694 2 30.753524033176955 5.5791124006107546 2 56.002186329950767 1.5999999999999999 2 57.723514242382812 1.5999999999999999 2 67.501003636774087 11.98758539889444 2 83.175269831230409 8.3749592527736851 2 83.10377572610679 3.4927138610510711 2 88.874931782470128 5.6192207822240041 2 91.457902698585599 6.5136714092932744 2 98.4 2.6939549729481 2 16.599130427172785 6.6752761361212647 2 29.91436892135345 1.5999999999999999 2 57.147795049546573 4.2716164869385356 2 58.774514225153283 6.8136507344263357 2 65.971782355928653 5.1676752072879291 2 87.547249419270813 3.135051003701383 2 89.778518422382916 3.3950714276501182 2 89.888700404963672 9.9465773342560997 2 96.406935633022329 3.7445764047631789 2 9.6507949342832475 7.0964286600251016 2 12.247394671352257 6.6942098230572018 2 32.569787854440214 5.8338614757475966 2 53.321693377046813 3.1535848044630286 2 60.474445011033865 4.5921653437100645 2 64.096134301675363 6.2315858761740266 2 81.312935593781603 10.627891713833993 2 86.500969410894058 6.3440559774939587 2 85.747911819460114 9.5262136048105646 2 93.27759274367763 3.4112044932729484 2 98.4 4.1749424125956587 2 </DataArray>
<DataArray Name="forces" NumberOfComponents="3" format="ascii" type="Float32">-0.65564469708764461 -0.018279339615688558 0.0 -0.37929045687394147 0.22762245753470062 0.0 -0.2964087929214938 0.091252735176008737 0.0 0.16893227675095246 0.067276564285881024 0.0 0.12650384087184258 0.4200759496683093 0.0 -0.0023800765233083351 0.4094471853077909 0.0 -0.13345345945283771 0.24569096821009884 0.0 -0.15339405411497498 0.63503382146459031 0.0 -0.16552674930169764 0.44429818790501951 0.0 -0.032220831898268201 0.25967136477154784 0.0 0.018249688582478052 -0.054884352500483846 0.0 -0.10719139435546488 -2.2218072707739998 0.0 -0.1003163384445549 -1.8606161687052536 0.0 -0.30800645496183937 0.77017944242395187 0.0 -0.18014969135050707 0.65658173442149947 0.0 -0.48267955816892316 0.59207032241530078 0.0 -0.16893949520247362 0.84956557653249098 0.0 0.16233050656351405 0.66413745576702687 0.0 -0.063142796431393255 0.16649245328828879 0.0 0.083237850869204433 0.49468218806409014 0.0 -0.0079807420047287581 -0.38244410479301733 0.0 -0.088895674025577687 0.90097912144660675 0.0 0.046765348674091767 1.0777718394961751 0.0 -0.16005095119878932 -2.1826490793026485 0.0 -0.089466603187084492 0.55500620338268369 0.0 -0.10139395390004258 0.56322069911122674 0.0 1.9103936948883609 -2.9601956510260292 0.0 -0.061072118601243182 0.87258695754847915 0.0 0.10584544511389749 -1.8665639851153883 0.0 -0.24063512390332004 0.54634202820146172 0.0 -0.21521514868059399 0.8336444763985319 0.0 -0.011897478680935381 0.41456181409308657 0.0 -0.10847111058732473 0.41867611334532506 0.0 -0.084345466424373933 0.24866188338451981 0.0 -0.12267635706033864 0.64829943893611663 0.0 -0.079983753625078813 0.34915913901913953 0.0 -0.43902168885389448 0.68741524670394982 0.0 -0.1869749053744888 0.39053447132603408 0.0 0.31995306228507692 0.45575805665981273 0.0 -0.20281802857850573 -1.6961988793504599 0.0 0.025408383423644043 0.076932293760609588 0.0 0.1054913068676237 0.40247383552919158 0.0 -0.32679530306069848 0.82611310761604417 0.0 -0.17251008404866397 0.32956040017212973 0.0 -0.23572930744882398 0.57154576634804055 0.0 -0.072389258390968436 0.35542034075924911 0.0 2.3728474286220695 0.57020541171601158 0.0 0.13450382916439901 0.39547532040287875 0.0 0.085670149083120109 0.68722485503022046 0.0 -0.39905239110018287 0.85948445631195836 0.0 -0.30629873278742581 0.62982771786055047 0.0 0.086640461798202034 0.3488201620113604 0.0 -0.14719687325492639 0.33435665974965423 0.0 -0.16677882154493273 -2.2387756468565883 0.0 -0.086658811950825018 0.91519254365159974 0.0 2.111177452957 0.54617852398561362 0.0 -0.35940674924048877 0.38192714520290888 0.0 -0.0061718083406629431 0.52429414845203415 0.0 -0.0010999100136506179 0.4811645952340502 0.0 -0.38135028463465881 -1.9256070176793039 0.0 -0.37990719178304905 -1.9567345650035533 0.0 0.046695704353914291 0.80980738298969668 0.0 -0.21135520548137512 0.78190288373049177 0.0 -0.2729712262784485 0.40163270824863462 0.0 0.008283116638216903 0.44891310541709339 0.0 -0.11071695901724729 0.48093367997398895 0.0 1.8562916096258293 0.44187410332667243 0.0 0.11999915836468089 0.46116850250738539 0.0 0.12596002213968627 -2.0104281564231932 0.0 0.12867358220190211 0.41296465906032298 0.0 -0.28527073816535137 0.54804467334089868 0.0 -0.034980693014217808 0.35510504334767651 0.0 -0.030681856225607262 0.42609067747512164 0.0 -0.05144875238761909 0.16476704794562319 0.0 -0.12811624034177049 0.80036205650370063 0.0 -0.05933571203799759 0.14898651285200662 0.0 -0.25354731561742955 0.51746517502818645 0.0 -0.065665149855010263 0.59366855149161557 0.0 0.11367656459530562 0.54295297336273285 0.0 -0.16387330618018195 0.30267167163404213 0.0 -0.13127561832085463 0.37988975234757538 0.0 -0.12405161460223002 0.43038966043410726 0.0 -0.10317561651816939 0.72974021429938574 0.0 -0.17187759541511255 0.55348972766399596 0.0 -0.15670127343217305 0.66472961314525225 0.0 -0.13046751021654784 0.36656384421135912 0.0 2.1125941349929134 0.46014508865762749 0.0 </DataArray>
<DataArray Name="radii" format="ascii" type="Float32">1.2 1.2 1 1.5999999999999999 1.5999999999999999 1.2 1 1.5999999999999999 1.5999999999999999 1.5999999999999999 1 1.5999999999999999 1.5999999999999999 1.5999999999999999 1.5999999999999999 1.5999999999999999 1.5999999999999999 1.5999999999999999 1 1.5999999999999999 1.5999999999999999 1.5999999999999999 1.5999999999999999 1.5999999999999999 1.5999999999999999 1.5999999999999999 1.5999999999999999 1.5999999999999999 1.5999999999999999 1.5999999999999999 1.5999999999999999 1.5999999999999999 1.5999999999999999 1.5999999999999999 1.5999999999999999 1.5999999999999999 1.5999999999999999 1.5999999999999999 1.5999999999999999 1.5999999999999999 1.5999999999999999 1.5999999999999999 1.5999999999999999 1.5999999999999999 1.5999999999999999 1.5999999999999999 1.5999999999999999 1.5999999999999999 1.5999999999999999 1.5999999999999999 1.5999999999999999 1.5999999999999999 1.5999999999999999 1.5999999999999999 1.5999999999999999 1.5999999999999999 1.5999999999999999 1.5999999999999999 1.5999999999999999 1.5999999999999999 1.5999999999999999 1.5999999999999999 1.5999999999999999 1.5999999999999999 1.5999999999999999 1.5999999999999999 1.5999999999999999 1.5999999999999999 1.5999999999999999 1.5999999999999999 1.5999999999999999 1.5999999999999999 1.5999999999999999 1.5999999999999999 1.5999999999999999 1.5999999999999999 1.5999999999999999 1.5999999999999999 1.5999999999999999 1.5999999999999999 1.5999999999999999 1.5999999999999999 1.5999999999999999 1.5999999999999999 1.5999999999999999 1.5999999999999999 1.5999999999999999 </DataArray>
</PointData>
<CellData/>
</Piece>
</UnstructuredGrid>
</VTKFile>
