<?xml version="1.0" ?>
<VTKFile byte_order="LittleEndian" type="UnstructuredGrid" version="0.1">
<UnstructuredGrid>
<Piece NumberOfCells="0" NumberOfPoints="35">
<Points>
<DataArray NumberOfComponents="3" format="ascii" type="Float32">0 0 0 11.122700022821601 1.4 2 18.236650935083659 3.6570082016173115 2 22.337737250171948 5.5817404851629151 2 24.862859547868361 1.4 2 27.598192707425635 1.4 2 33.939178873898335 4.8084831951117177 2 36.640596130543642 3.47350939958987 2 45.429599975900928 1.4 2 48.821841943769464 5.0784003453876068 2 54.175144861411489 5.8232231455660024 2 62.621975903823298 1.4 2 67.237894287293557 4.7509038852700307 2 69.554095930404955 3.6219027275247382 2 74.791895535290948 4.5276940385503863 2 76.394914064383357 2.8940593037301672 2 81.695635372937275 3.8308580379503554 2 93.616081226389923 3.7885248526293385 2 94.665795893154723 1.4 2 13.881769497976244 1.4 2 22.993555099470615 3.3636659243649363 2 25.658723593711098 4.0680678767982448 2 28.414519978549531 4.0180828648074742 2 32.999521610371275 2.1706131156777455 2 45.088275918110327 4.2500165672257983 2 47.558645199607291 3.1105717385301994 2 55.21129959839574 3.7350197518560386 2 62.615467833968545 5.0447594857456597 2 67.914906462461261 1.4 2 70.944697398469913 1.4 2 72.201410706446239 3.8668691269367668 2 75.706454149338242 1 2 82.638783297237111 1.4 2 92.747732116523352 6.3501820978631498 2 96.176070694323855 4.2509906606877008 2 </DataArray>
</Points>
<Cells>
<DataArray Name="connectivity" format="ascii" type="Int32">0</DataArray>
<DataArray Name="offsets" format="ascii" type="Int32">0</DataArray>
<DataArray Name="types" format="ascii" type="UInt8">1</DataArray>
</Cells>
<PointData>
<DataArray Name="Points" NumberOfComponents="3" format="ascii" type="Float32">0 0 0 11.122700022821601 1.4 2 18.236650935083659 3.6570082016173115 2 22.337737250171948 5.5817404851629151 2 24.862859547868361 1.4 2 27.598192707425635 1.4 2 33.939178873898335 4.8084831951117177 2 36.640596130543642 3.47350939958987 2 45.429599975900928 1.4 2 48.821841943769464 5.0784003453876068 2 54.175144861411489 5.8232231455660024 2 62.621975903823298 1.4 2 67.237894287293557 4.7509038852700307 2 69.554095930404955 3.6219027275247382 2 74.791895535290948 4.5276940385503863 2 76.394914064383357 2.8940593037301672 2 81.695635372937275 3.8308580379503554 2 93.616081226389923 3.7885248526293385 2 94.665795893154723 1.4 2 13.881769497976244 1.4 2 22.993555099470615 3.3636659243649363 2 25.658723593711098 4.0680678767982448 2 28.414519978549531 4.0180828648074742 2 32.999521610371275 2.1706131156777455 2 45.088275918110327 4.2500165672257983 2 47.558645199607291 3.1105717385301994 2 55.21129959839574 3.7350197518560386 2 62.615467833968545 5.0447594857456597 2 67.914906462461261 1.4 2 70.944697398469913 1.4 2 72.201410706446239 3.8668691269367668 2 75.706454149338242 1 2 82.638783297237111 1.4 2 92.747732116523352 6.3501820978631498 2 96.176070694323855 4.2509906606877008 2 </DataArray>
<DataArray Name="forces" NumberOfComponents="3" format="ascii" type="Float32">0 0 0 -0.042562488218172767 0.0 0.0 0.042879173033823728 0.028322417611333681 0.0 -0.026461613032743386 0.090048641339717517 0.0 -0.0048211504323463425 -0.090337582379454148 0.0 0.0077682558786206016 -0.064162099562702024 0.0 0.0 0.0 0.0 0.014896810885811738 0.027415551909399181 0.0 -0.0043521279819871764 -0.077630173100961361 0.0 0.034902479373952515 0.055208770979537865 0.0 -0.034337723293389091 0.068944130683538996 0.0 -0.018423748532191267 -0.024008390613837305 0.0 -0.035516562026936233 0.18065510912915583 0.0 -0.0098910423755992072 0.076619826414574488 0.0 0.050304886933833351 0.11375558940734838 0.0 -0.01173194977484715 0.019920386916905411 0.0 -0.036207312479150287 0.090923624837232764 0.0 -0.028455243979309791 0.056854185071987424 0.0 0.053210002878644413 -0.17894974724190321 0.0 -0.03561092653605144 -0.049225435147817208 0.0 -0.0024874016034965238 0.076020263229708965 0.0 0.0018275243576491781 0.030648371669173755 0.0 0.0033192506464732249 0.05909502072898358 0.0 -0.0037842937137625918 0.0010353167418017256 0.0 -0.063382729830994924 0.045506873103254658 0.0 -0.031670545253320137 0.088293085154134102 0.0 -0.032080065158380633 0.040579821225176976 0.0 0.0046371072469803265 0.26231967906416254 0.0 0.049285936795747706 -0.030981112190101693 0.0 -0.018306167959792844 -0.19006586878816856 0.0 0.034742181058218788 0.015516093333615345 0.0 -0.011372191213524993 -0.033029990648164975 0.0 -0.044291908130904778 -0.18298235770652801 0.0 -0.026728931069733248 0.098905785634092802 0.0 -0.032773775283764073 0.11404671468258279 0.0 </DataArray>
<DataArray Name="radii" format="ascii" type="Float32">0 1.4 1.2 1 1.4 1.4 1.4 1.2 1.4 1 1 1.4 1.4 1.4 1.4 1 1.4 1.4 1.4 1.4 1.4 1.4 1.4 1.4 1.4 1.4 1.4 1.4 1.4 1.4 1.4 1 1.4 1.4 1.4 </DataArray>
</PointData>
<CellData/>
</Piece>
</UnstructuredGrid>
</VTKFile>
