<?xml version="1.0" ?>
<VTKFile byte_order="LittleEndian" type="UnstructuredGrid" version="0.1">
<UnstructuredGrid>
<Piece NumberOfCells="0" NumberOfPoints="116">
<Points>
<DataArray NumberOfComponents="3" format="ascii" type="Float32">0 0 0 8.7858873585825741 1.2 2 19.951414155813907 4.7845395432948026 2 21.963420655444143 8.501633375585822 2 23.362505309497525 2.9611235877755182 2 26.47821239202279 2.6288554107705111 2 35.919008673529788 3.6504570266099616 2 37.776709635568892 4.6926542546400487 2 45.584999717587465 1.2 2 48.856227659363448 7.0278502241365386 2 53.649977553507419 7.7970301198861893 2 62.227846510827369 1.2 2 67.761218277345506 5.9046015765621371 2 70.509489505444662 5.6257683094490023 2 74.76028443459299 7.8757204507299656 2 76.890538551905777 2.7105505894544359 2 82.61557740719897 5.5090859241709396 2 93.555537355855776 7.1578707973374902 2 96.902196488090979 1.2 2 14.534532317284501 5.1322600354872581 2 21.111869456349442 6.6217553070540642 2 23.023124624654603 6.6392493251486568 2 27.015870228986259 4.4196699076296335 2 33.469297964151927 1.2 2 45.410348106070458 4.4094819133137841 2 46.614385695140747 6.1504605000781769 2 52.329919474182567 5.5675452886224504 2 62.192389617041258 10.595907004824163 2 68.20540717179361 4.4228410445119497 2 71.385355088832114 3.1876161655275994 2 72.177087154076602 5.0941598044376732 2 76.52132940203056 1 2 81.515325967867383 1.441164598332662 2 94.408506974768486 10.862418761049256 2 95.462561530820622 6.4500726756753188 2 11.850030025249778 2.7160275651767956 2 25.177939746392045 3.8331457554861346 2 28.530775965925059 2.7970921926130279 2 37.016175970925488 7.6716877483478063 2 43.555192152768917 1.2 2 61.150456068446147 2.7577330706209158 2 67.667671055409485 8.4673462891948201 2 71.608055594292452 8.9109475162634073 2 76.343172518753391 5.4282506916084392 2 80.360452504720357 4.8282943346145117 2 94.862374191422091 4.5383593513257621 2 93.906300058696345 1.2 2 13.164944950490678 1.2 2 22.171308831691036 4.563869583121825 2 26.239389619839358 8.3573542852217138 2 28.218810721152824 8.1342753708008093 2 32.338757765271957 3.2251477067931948 2 44.992741076966311 7.687434234672283 2 50.170073346210003 5.5468896370489666 2 55.006531038340107 4.3498023539853241 2 60.5014821523392 8.1538897946175215 2 67.813054184895833 1.2 2 72.812481709579615 1.2 2 75.359452673281794 3.4705525906930883 2 82.022758743295071 3.6142723794291252 2 92.309526906031948 9.861299214483692 2 98.150535970840053 9.1459680564672166 2 9.6498127737958086 2.8441916335178785 2 23.919019304797217 1.2 2 25.629822591876376 1.2 2 35.861681960195419 5.8246921782223025 2 46.753718170472361 3.0244232070288017 2 64.139101675994922 1.2 2 66.272717866555723 6.9451236520914881 2 69.216015035978117 6.8592020433446947 2 72.592915618821323 7.041103026808452 2 81.364656981211411 6.9126059333702186 2 93.605527761649299 5.419683767443443 2 95.465759982307361 1.2 2 12.862053908199419 4.0956746509571982 2 19.062417639389103 7.2203164065423246 2 24.251833573338882 8.1611434792857285 2 28.820574799158333 4.6871511893005637 2 34.342863576487254 2.579380202039014 2 43.62547197236065 5.4234637163389907 2 48.197866986090972 4.7546616317417856 2 51.23187006405999 7.492605965926967 2 62.760506066864238 8.6649350449651248 2 69.767919245081629 3.5848207494349942 2 69.686897646277885 1.2 2 73.334703598811458 3.8608292366639745 2 82.980645299320258 1.2 2 94.057283128981723 8.8028302228187858 2 96.053912277734668 8.3774650700260942 2 10.917101867701144 1.2 2 24.215687350256168 5.2153184361833631 2 27.711797904016475 1.2 2 34.82019617598219 8.6207542036139539 2 43.947096590288076 3.0574762118671672 2 60.23551626860948 1.2 2 65.738992484676857 9.0566397372457992 2 69.56516431460355 8.9096467106368884 2 77.275204375339783 7.5265737190142668 2 79.214229073657975 6.4102370180716663 2 95.235368143972082 2.8176355000901818 2 92.38032666496153 1.2 2 14.551041265416469 2.9078858994966241 2 20.996405500930869 2.8262125892089589 2 26.96778376090456 6.2720506126824382 2 30.210350786732125 8.8677099005835558 2 34.106995333584905 4.5349174764775491 2 42.648639930983762 7.4989948944496998 2 50.562035727985567 3.6871805977318188 2 54.265368710588476 5.9499453069178747 2 62.475386341070227 6.7562819516855823 2 68.132172481903623 2.5814772876755678 2 71.252870772039515 1.2722295262467149 2 74.354678662617872 5.6372753646799891 2 84.123635446001487 4.7755301980461606 2 91.692970067609366 7.8945858075435931 2 96.611415087376201 10.601906766771103 2 </DataArray>
</Points>
<Cells>
<DataArray Name="connectivity" format="ascii" type="Int32">0</DataArray>
<DataArray Name="offsets" format="ascii" type="Int32">0</DataArray>
<DataArray Name="types" format="ascii" type="UInt8">1</DataArray>
</Cells>
<PointData>
<DataArray Name="Points" NumberOfComponents="3" format="ascii" type="Float32">0 0 0 8.7858873585825741 1.2 2 19.951414155813907 4.7845395432948026 2 21.963420655444143 8.501633375585822 2 23.362505309497525 2.9611235877755182 2 26.47821239202279 2.6288554107705111 2 35.919008673529788 3.6504570266099616 2 37.776709635568892 4.6926542546400487 2 45.584999717587465 1.2 2 48.856227659363448 7.0278502241365386 2 53.649977553507419 7.7970301198861893 2 62.227846510827369 1.2 2 67.761218277345506 5.9046015765621371 2 70.509489505444662 5.6257683094490023 2 74.76028443459299 7.8757204507299656 2 76.890538551905777 2.7105505894544359 2 82.61557740719897 5.5090859241709396 2 93.555537355855776 7.1578707973374902 2 96.902196488090979 1.2 2 14.534532317284501 5.1322600354872581 2 21.111869456349442 6.6217553070540642 2 23.023124624654603 6.6392493251486568 2 27.015870228986259 4.4196699076296335 2 33.469297964151927 1.2 2 45.410348106070458 4.4094819133137841 2 46.614385695140747 6.1504605000781769 2 52.329919474182567 5.5675452886224504 2 62.192389617041258 10.595907004824163 2 68.20540717179361 4.4228410445119497 2 71.385355088832114 3.1876161655275994 2 72.177087154076602 5.0941598044376732 2 76.52132940203056 1 2 81.515325967867383 1.441164598332662 2 94.408506974768486 10.862418761049256 2 95.462561530820622 6.4500726756753188 2 11.850030025249778 2.7160275651767956 2 25.177939746392045 3.8331457554861346 2 28.530775965925059 2.7970921926130279 2 37.016175970925488 7.6716877483478063 2 43.555192152768917 1.2 2 61.150456068446147 2.7577330706209158 2 67.667671055409485 8.4673462891948201 2 71.608055594292452 8.9109475162634073 2 76.343172518753391 5.4282506916084392 2 80.360452504720357 4.8282943346145117 2 94.862374191422091 4.5383593513257621 2 93.906300058696345 1.2 2 13.164944950490678 1.2 2 22.171308831691036 4.563869583121825 2 26.239389619839358 8.3573542852217138 2 28.218810721152824 8.1342753708008093 2 32.338757765271957 3.2251477067931948 2 44.992741076966311 7.687434234672283 2 50.170073346210003 5.5468896370489666 2 55.006531038340107 4.3498023539853241 2 60.5014821523392 8.1538897946175215 2 67.813054184895833 1.2 2 72.812481709579615 1.2 2 75.359452673281794 3.4705525906930883 2 82.022758743295071 3.6142723794291252 2 92.309526906031948 9.861299214483692 2 98.150535970840053 9.1459680564672166 2 9.6498127737958086 2.8441916335178785 2 23.919019304797217 1.2 2 25.629822591876376 1.2 2 35.861681960195419 5.8246921782223025 2 46.753718170472361 3.0244232070288017 2 64.139101675994922 1.2 2 66.272717866555723 6.9451236520914881 2 69.216015035978117 6.8592020433446947 2 72.592915618821323 7.041103026808452 2 81.364656981211411 6.9126059333702186 2 93.605527761649299 5.419683767443443 2 95.465759982307361 1.2 2 12.862053908199419 4.0956746509571982 2 19.062417639389103 7.2203164065423246 2 24.251833573338882 8.1611434792857285 2 28.820574799158333 4.6871511893005637 2 34.342863576487254 2.579380202039014 2 43.62547197236065 5.4234637163389907 2 48.197866986090972 4.7546616317417856 2 51.23187006405999 7.492605965926967 2 62.760506066864238 8.6649350449651248 2 69.767919245081629 3.5848207494349942 2 69.686897646277885 1.2 2 73.334703598811458 3.8608292366639745 2 82.980645299320258 1.2 2 94.057283128981723 8.8028302228187858 2 96.053912277734668 8.3774650700260942 2 10.917101867701144 1.2 2 24.215687350256168 5.2153184361833631 2 27.711797904016475 1.2 2 34.82019617598219 8.6207542036139539 2 43.947096590288076 3.0574762118671672 2 60.23551626860948 1.2 2 65.738992484676857 9.0566397372457992 2 69.56516431460355 8.9096467106368884 2 77.275204375339783 7.5265737190142668 2 79.214229073657975 6.4102370180716663 2 95.235368143972082 2.8176355000901818 2 92.38032666496153 1.2 2 14.551041265416469 2.9078858994966241 2 20.996405500930869 2.8262125892089589 2 26.96778376090456 6.2720506126824382 2 30.210350786732125 8.8677099005835558 2 34.106995333584905 4.5349174764775491 2 42.648639930983762 7.4989948944496998 2 50.562035727985567 3.6871805977318188 2 54.265368710588476 5.9499453069178747 2 62.475386341070227 6.7562819516855823 2 68.132172481903623 2.5814772876755678 2 71.252870772039515 1.2722295262467149 2 74.354678662617872 5.6372753646799891 2 84.123635446001487 4.7755301980461606 2 91.692970067609366 7.8945858075435931 2 96.611415087376201 10.601906766771103 2 </DataArray>
<DataArray Name="forces" NumberOfComponents="3" format="ascii" type="Float32">0 0 0 -0.013276162246579792 -0.47175714486574077 0.0 0.038748295039538611 0.16537529407549031 0.0 0.028972921809472679 0.17169398434504207 0.0 -0.18856234071952618 0.14445128574168303 0.0 0.0012860164047550637 0.056900881514414303 0.0 0.090415327134005796 0.092034949394514537 0.0 0.067650745989330976 0.12650725941118418 0.0 -0.058479777348728862 -0.19079708481235336 0.0 -0.14584366047028607 0.16689542500491641 0.0 -0.081271521223654511 0.2414491092612801 0.0 -0.052708422379463937 -0.96155242724503198 0.0 0.053591832189354704 0.31193670555420028 0.0 -0.084405324165117271 0.0031585596522410719 0.0 0.097599367702580722 0.15126109207761596 0.0 -0.004925860563166351 -0.033638408889474253 0.0 -0.2681114733184044 0.08333895077894482 0.0 0.0444686303458382 0.1305353986239555 0.0 0.015010706373119208 -1.0249174927045739 0.0 -0.030545268772512114 0.20667679134659822 0.0 -0.10819584677924499 0.23419007199884923 0.0 -0.057594051137276503 0.17418794219709827 0.0 -0.06750589518651702 0.14744884072013731 0.0 0.099298534584948195 -0.72371106906208826 0.0 0.11746081737066444 0.20922812486630579 0.0 0.059976492597360098 0.31576653361521678 0.0 -0.11983435198082376 0.15533890872204348 0.0 -0.18997192286937803 0.37293258981851346 0.0 0.098397153817481098 0.18646191062710188 0.0 0.29935337372626442 -0.095003655937026421 0.0 0.037980956437166563 0.20192506064688046 0.0 -0.0054073402549644767 -0.3394681983627193 0.0 -0.080736988811546451 -0.1646813735931594 0.0 -0.066888847420813163 0.36765627018805086 0.0 -0.10254575454746256 0.18433697543173849 0.0 -0.021259733942515513 0.087465436209268388 0.0 -0.1478107879528397 -0.12809199542426508 0.0 -0.0306458257993453 0.19599778482015251 0.0 0.12954076245545049 0.1864787886522751 0.0 -0.086231123168317214 -0.69763012430286397 0.0 -0.029739769874005118 0.10336603697439495 0.0 0.043606128068858607 0.13586830536686062 0.0 0.23270545889686914 0.24974629399591733 0.0 0.019426751986339086 0.13471617388243368 0.0 -0.037341149309811195 0.18436272897239342 0.0 0.081587198917911385 0.10853642838603281 0.0 -0.045623848580885057 -0.74677700837045147 0.0 -0.0087757034441430515 -0.45585794806428426 0.0 0.032047000349627708 0.24025985167261202 0.0 -0.067183948910080324 0.27221883764829136 0.0 -0.031120322444326054 0.31236990733319059 0.0 0.088233045198266996 0.050142559521018398 0.0 -0.070443094763857683 0.1160217259099706 0.0 -0.022419229677710886 0.26587714150629649 0.0 0.14486814340915449 0.25721960025074447 0.0 -0.10505108837624542 0.20299192688453052 0.0 -0.080940652465401636 -0.95425170596368702 0.0 0.098564197179022872 -0.79586280719997216 0.0 0.072189386315300072 0.12412905545330381 0.0 -0.073376571220596404 -0.047767073598523321 0.0 0.0031039327608055056 0.30134732267376857 0.0 0.20963016945136195 0.29716926591171067 0.0 -0.020635446283726322 0.10376443242056493 0.0 -0.035552374388577501 -0.53031087426379897 0.0 -0.0060306473480611911 -0.63735131345156393 0.0 0.099411270517153122 0.166987403130331 0.0 -0.023269383249090794 0.022853877644777407 0.0 -0.020803103482397223 -0.94960903495935078 0.0 -0.11312158586784857 0.166930673388795 0.0 0.15772317689579976 0.34611131449074978 0.0 0.026719443044358165 0.21720373897170034 0.0 -0.14743511331035278 0.34354388985751805 0.0 -0.064102637258285466 0.022408524744275973 0.0 -0.015099208453663748 -0.75760287157226591 0.0 -0.018468303269956771 0.097290331837646626 0.0 -0.10183424053726203 0.1762592386547259 0.0 -0.12039890432644196 0.30759179092354244 0.0 0.054544406782413013 0.23894905196469302 0.0 0.099620353942430878 0.088124224821857 0.0 -0.037247726199762687 0.10078479524674316 0.0 -0.045148011322956039 0.14019758417878853 0.0 -0.0060321650929494181 0.33386952203886955 0.0 -0.11191480845582162 0.33803829568481203 0.0 0.16683887640999256 -0.076261173494151346 0.0 -0.067898496010895482 -0.26910603729514998 0.0 0.12287270018526936 0.15458176966563386 0.0 0.033840274880221899 -0.67483901514932509 0.0 0.10654638660516724 0.2319083513677683 0.0 0.15308094151790266 0.32397572819284137 0.0 -0.0090821917941844021 -0.79307727458497002 0.0 0.17591748617855091 0.25113014296024688 0.0 0.0049840024495887425 -0.93831029700066726 0.0 0.14171814152504827 0.30797735441710961 0.0 -0.027911595327732144 0.14775788000620568 0.0 -0.048051736252909039 -0.9903234612139904 0.0 0.0016302497679295397 0.26484914514499436 0.0 0.14644149337299431 0.41930867490219637 0.0 -0.095618947003600949 0.1733729939652468 0.0 -0.11178588922129915 0.2151952500389066 0.0 -0.014335767196137161 0.014135690386381974 0.0 -0.067274483933007279 -0.69975242802176618 0.0 0.015978628175081389 0.11612512040973824 0.0 0.007800721185125481 0.095924349540496889 0.0 -0.042230794841241544 0.23532549431369396 0.0 0.073478092113176699 0.3118547738611962 0.0 0.10471710657099464 0.17415903990354947 0.0 -0.04891244022739271 0.17981018144600211 0.0 -0.1054768411718375 0.12806313285837012 0.0 -0.13417425378767689 0.21514348901348673 0.0 -0.023210894045391284 0.22605383144569874 0.0 0.13835306451076362 0.12249473323689525 0.0 -0.044664596217801389 -0.38871206942410824 0.0 0.0094708894065414773 0.18325236463758049 0.0 -0.11590386305488809 0.18704280100786963 0.0 0.11622016648761568 0.24060315604452792 0.0 -0.00020423740265243864 0.27833733143035355 0.0 </DataArray>
<DataArray Name="radii" format="ascii" type="Float32">0 1.2 1.4 1 1.2 1.2 1.2 1.2 1.2 1 1 1.2 1.2 1.2 1.2 1 1.2 1.2 1.2 1.2 1.2 1.2 1.2 1.2 1.2 1.2 1.2 1.2 1.2 1.2 1.2 1 1.2 1.2 1.2 1.2 1.2 1.2 1.2 1.2 1.2 1.2 1.2 1.2 1.2 1.2 1.2 1.2 1.2 1.2 1.2 1.2 1.2 1.2 1.2 1.2 1.2 1.2 1.2 1.2 1.2 1.2 1.2 1.2 1.2 1.2 1.2 1.2 1.2 1.2 1.2 1.2 1.2 1.2 1.2 1.2 1.2 1.2 1.2 1.2 1.2 1.2 1.2 1.2 1.2 1.2 1.2 1.2 1.2 1.2 1.2 1.2 1.2 1.2 1.2 1.2 1.2 1.2 1.2 1.2 1.2 1.2 1.2 1.2 1.2 1.2 1.2 1.2 1.2 1.2 1.2 1.2 1.2 1.2 1.2 1.2 </DataArray>
</PointData>
<CellData/>
</Piece>
</UnstructuredGrid>
</VTKFile>
