<?xml version="1.0" ?>
<VTKFile byte_order="LittleEndian" type="UnstructuredGrid" version="0.1">
<UnstructuredGrid>
<Piece NumberOfCells="0" NumberOfPoints="16">
<Points>
<DataArray NumberOfComponents="3" format="ascii" type="Float32">3.5997490886491499 1.2000000000000002 2 7.1475696779470175 1.2000000000000002 2 16.663036367786887 1.2000000000000002 2 18.961499521400764 1.2000000000000002 2 21.445569125496664 1.2000000000000002 2 34.831886946745527 1.2000000000000002 2 37.996001160695357 1.2000000000000002 2 41.2250603191858 1.2000000000000002 2 49.56425566960359 1.2000000000000002 2 51.984071188480456 1.2000000000000002 2 54.261080887096796 1.2000000000000002 2 65.266296940918807 1.2000000000000002 2 73.031290557375641 1.2037354790271972 2 78.286157369856852 1.2000000000000002 2 80.677968243480422 1.2000000000000002 2 91.938774108116633 1.2000000000000002 2 </DataArray>
</Points>
<Cells>
<DataArray Name="connectivity" format="ascii" type="Int32">0</DataArray>
<DataArray Name="offsets" format="ascii" type="Int32">0</DataArray>
<DataArray Name="types" format="ascii" type="UInt8">1</DataArray>
</Cells>
<PointData>
<DataArray Name="Points" NumberOfComponents="3" format="ascii" type="Float32">3.5997490886491499 1.2000000000000002 2 7.1475696779470175 1.2000000000000002 2 16.663036367786887 1.2000000000000002 2 18.961499521400764 1.2000000000000002 2 21.445569125496664 1.2000000000000002 2 34.831886946745527 1.2000000000000002 2 37.996001160695357 1.2000000000000002 2 41.2250603191858 1.2000000000000002 2 49.56425566960359 1.2000000000000002 2 51.984071188480456 1.2000000000000002 2 54.261080887096796 1.2000000000000002 2 65.266296940918807 1.2000000000000002 2 73.031290557375641 1.2037354790271972 2 78.286157369856852 1.2000000000000002 2 80.677968243480422 1.2000000000000002 2 91.938774108116633 1.2000000000000002 2 </DataArray>
<DataArray Name="forces" NumberOfComponents="3" format="ascii" type="Float32">0.001631517865861173 -0.0020491543463856433 0.0 -0.00012561320710494095 -0.0020248973505022708 0.0 0.012117443713434376 -0.019075695646136651 0.0 -0.03437846065422967 0.0 0.0 0.018745162920910659 -0.016220573384193797 0.0 0.0012169940679930065 -0.0011875458891913364 0.0 -7.4009439142435404e-05 -0.00090989362605988476 0.0 0.00025548801848650178 -0.0002809695865431553 0.0 -0.029904305341122608 -0.051136722496638719 0.0 0.020607597224490348 0.0 0.0 -0.002170957896261469 -0.014660026978091654 0.0 0.0 0.0 0.0 0.0041718861642644559 -0.00030036096034186783 0.0 -0.0050037651974239802 -0.0055377158478425656 0.0 -0.0030231167031110479 -0.015395483344931168 0.0 0.00093097921111028373 -0.0036457064405327438 0.0 </DataArray>
<DataArray Name="radii" format="ascii" type="Float32">1.2000000000000002 1.2000000000000002 1.2000000000000002 1.2000000000000002 1.2000000000000002 1.2000000000000002 1.2000000000000002 1.2000000000000002 1.2000000000000002 1.2000000000000002 1.2000000000000002 1.2000000000000002 1.2000000000000002 1.2000000000000002 1.2000000000000002 1.2000000000000002 </DataArray>
</PointData>
<CellData/>
</Piece>
</UnstructuredGrid>
</VTKFile>
