<?xml version="1.0" ?>
<VTKFile byte_order="LittleEndian" type="UnstructuredGrid" version="0.1">
<UnstructuredGrid>
<Piece NumberOfCells="0" NumberOfPoints="32">
<Points>
<DataArray NumberOfComponents="3" format="ascii" type="Float32">3.1159664134758591 3.6125777010143567 2 6.6469643174910775 1.300746024848485 2 15.20745259717487 1.3000000000000003 2 18.354372444102694 1.3000000000000003 2 20.02422650236705 1.3000000000000003 2 37.800449006543921 2.9940498246860998 2 38.50242019353918 1.3000000000000003 2 41.676872331581471 2.7543016008237249 2 48.505731927841573 3.3285505264959871 2 50.876044758320525 1.3000000000000003 2 52.04680535519681 3.8553168503682511 2 65.052951910519738 2.7696591268335684 2 73.970361681153847 2.6510768608749071 2 77.959749558445239 1.3000000000000003 2 79.458068083277382 1.3000000000000003 2 90.97053475054372 1.3000000000000003 2 2.8998998008223884 1.3000000000000003 2 4.7243573366623322 1.3000000000000003 2 16.808232593890878 1.3000000000000003 2 18.244098139321306 3.2892524800142935 2 21.786898982153939 1.3000000000000003 2 36.371000915344176 1.3000000000000003 2 39.826252109514421 3.7753770010555736 2 40.416320699258165 1.3000000000000003 2 47.527966404100937 1.3000000000000003 2 49.321872166846568 1.3000000000000003 2 52.224252029692721 1.3000000000000003 2 66.001882238792831 1.3000000000000003 2 75.014670768700668 1.3000000000000003 2 77.975528020248078 3.4666536422625898 2 79.89451252455342 2.8730540577900627 2 91.25134501925811 2.779284844769621 2 </DataArray>
</Points>
<Cells>
<DataArray Name="connectivity" format="ascii" type="Int32">0</DataArray>
<DataArray Name="offsets" format="ascii" type="Int32">0</DataArray>
<DataArray Name="types" format="ascii" type="UInt8">1</DataArray>
</Cells>
<PointData>
<DataArray Name="Points" NumberOfComponents="3" format="ascii" type="Float32">3.1159664134758591 3.6125777010143567 2 6.6469643174910775 1.300746024848485 2 15.20745259717487 1.3000000000000003 2 18.354372444102694 1.3000000000000003 2 20.02422650236705 1.3000000000000003 2 37.800449006543921 2.9940498246860998 2 38.50242019353918 1.3000000000000003 2 41.676872331581471 2.7543016008237249 2 48.505731927841573 3.3285505264959871 2 50.876044758320525 1.3000000000000003 2 52.04680535519681 3.8553168503682511 2 65.052951910519738 2.7696591268335684 2 73.970361681153847 2.6510768608749071 2 77.959749558445239 1.3000000000000003 2 79.458068083277382 1.3000000000000003 2 90.97053475054372 1.3000000000000003 2 2.8998998008223884 1.3000000000000003 2 4.7243573366623322 1.3000000000000003 2 16.808232593890878 1.3000000000000003 2 18.244098139321306 3.2892524800142935 2 21.786898982153939 1.3000000000000003 2 36.371000915344176 1.3000000000000003 2 39.826252109514421 3.7753770010555736 2 40.416320699258165 1.3000000000000003 2 47.527966404100937 1.3000000000000003 2 49.321872166846568 1.3000000000000003 2 52.224252029692721 1.3000000000000003 2 66.001882238792831 1.3000000000000003 2 75.014670768700668 1.3000000000000003 2 77.975528020248078 3.4666536422625898 2 79.89451252455342 2.8730540577900627 2 91.25134501925811 2.779284844769621 2 </DataArray>
<DataArray Name="forces" NumberOfComponents="3" format="ascii" type="Float32">-0.31611708816818612 0.14269674349827693 0.0 -0.073774977660881813 0.039303005968677918 0.0 -0.10951477344438648 -0.14530914102494252 0.0 0.049832889733140776 -0.69926793285022071 0.0 0.067938263276999977 -0.97681799572556161 0.0 -0.018950902831151389 0.1342913522528783 0.0 0.078364617828012628 -0.71956814488177245 0.0 0.076572077470567046 0.23297005752133326 0.0 -0.087345030675585147 0.16034887465066022 0.0 -0.097665413540991716 -0.43196072243178657 0.0 -0.10405130596707471 -0.036471623791619494 0.0 -0.087710979614290169 0.14058664711442051 0.0 -0.05067468971711514 0.17932719862081337 0.0 0.0053728837960108772 -0.76641350117410278 0.0 0.078737481165780943 -0.79771711556338443 0.0 0.026073917212784847 -1.0133857523993111 0.0 -0.0089713719156828686 -0.23623511780704393 0.0 -0.025821988410668406 -0.47375226958333538 0.0 -0.064368818155739638 -0.84837366213792609 0.0 -0.13858383027779192 0.070235043018590432 0.0 0.031197152980551077 -0.60834491240748378 0.0 0.089351926004507753 -0.71113193235228478 0.0 0.032128147310935537 0.13491281161873336 0.0 0.069740790409646203 -0.55643046820780895 0.0 -0.14701012344501618 -1.1102380912718868 0.0 -0.19463958981403573 -0.55585070305733197 0.0 0.0023360666247058681 -0.38942341184516827 0.0 0.0082947636173635875 -0.84999001247889439 0.0 -0.083778924937215213 -0.82576595186853941 0.0 0.01512295730429225 -0.025474546908876156 0.0 0.066943897779017547 0.089984426917423144 0.0 -0.073434514313647004 0.046661074207019315 0.0 </DataArray>
<DataArray Name="radii" format="ascii" type="Float32">1.3000000000000003 1.3000000000000003 1.3000000000000003 1.3000000000000003 1.3000000000000003 1.3000000000000003 1.3000000000000003 1.3000000000000003 1.3000000000000003 1.3000000000000003 1.3000000000000003 1.3000000000000003 1.3000000000000003 1.3000000000000003 1.3000000000000003 1.3000000000000003 1.3000000000000003 1.3000000000000003 1.3000000000000003 1.3000000000000003 1.3000000000000003 1.3000000000000003 1.3000000000000003 1.3000000000000003 1.3000000000000003 1.3000000000000003 1.3000000000000003 1.3000000000000003 1.3000000000000003 1.3000000000000003 1.3000000000000003 1.3000000000000003 </DataArray>
</PointData>
<CellData/>
</Piece>
</UnstructuredGrid>
</VTKFile>
