<?xml version="1.0" ?>
<VTKFile byte_order="LittleEndian" type="UnstructuredGrid" version="0.1">
<UnstructuredGrid>
<Piece NumberOfCells="0" NumberOfPoints="16">
<Points>
<DataArray NumberOfComponents="3" format="ascii" type="Float32">3.6849112450264676 1.3000000000000003 2 6.9106691857945499 1.3000000000000003 2 16.48816247033816 1.3000000000000003 2 18.97056749123227 1.3000000000000003 2 21.45640351733039 1.3000000000000003 2 35.462916915735434 1.3000000000000003 2 38.011966128960289 1.3000000000000003 2 41.291672860874684 1.3000000000000003 2 49.315256323406572 1.3000000000000003 2 51.730867022110687 1.3000000000000003 2 54.111980100515147 1.3000000000000003 2 65.284282010344327 1.3000000000000003 2 73.541654823245608 1.3000000000000003 2 77.857638362612491 1.3000000000000003 2 80.215913429126047 1.3000000000000003 2 92.244421289822327 1.3000000000000003 2 </DataArray>
</Points>
<Cells>
<DataArray Name="connectivity" format="ascii" type="Int32">0</DataArray>
<DataArray Name="offsets" format="ascii" type="Int32">0</DataArray>
<DataArray Name="types" format="ascii" type="UInt8">1</DataArray>
</Cells>
<PointData>
<DataArray Name="Points" NumberOfComponents="3" format="ascii" type="Float32">3.6849112450264676 1.3000000000000003 2 6.9106691857945499 1.3000000000000003 2 16.48816247033816 1.3000000000000003 2 18.97056749123227 1.3000000000000003 2 21.45640351733039 1.3000000000000003 2 35.462916915735434 1.3000000000000003 2 38.011966128960289 1.3000000000000003 2 41.291672860874684 1.3000000000000003 2 49.315256323406572 1.3000000000000003 2 51.730867022110687 1.3000000000000003 2 54.111980100515147 1.3000000000000003 2 65.284282010344327 1.3000000000000003 2 73.541654823245608 1.3000000000000003 2 77.857638362612491 1.3000000000000003 2 80.215913429126047 1.3000000000000003 2 92.244421289822327 1.3000000000000003 2 </DataArray>
<DataArray Name="forces" NumberOfComponents="3" format="ascii" type="Float32">0.0070363659510115674 -0.0081624101314940311 0.0 -0.044507606820473791 -0.10380179298388388 0.0 -0.014158427967408418 -0.04554302414682302 0.0 0.013641608588601056 -0.032043436571008346 0.0 0.040928130232760707 -0.10547565652147452 0.0 0.01926324330078942 -0.058002264965846678 0.0 0.023213054200173517 -0.033335129836439971 0.0 0.0 0.0 0.0 -0.061149753263324863 -0.13180324307299132 0.0 -0.033988766545405724 0.0 0.0 -0.0089953090249766943 -0.037698519066228404 0.0 0.018610459679997748 -0.27727256229507635 0.0 -0.010228924757698613 0.011713988362355363 0.0 -0.021081868566512271 -0.083840921246824116 0.0 -0.033490554154147978 -0.011227086982162805 0.0 0.030531600727893349 -0.024743449280030728 0.0 </DataArray>
<DataArray Name="radii" format="ascii" type="Float32">1.3000000000000003 1.3000000000000003 1.3000000000000003 1.3000000000000003 1.3000000000000003 1.3000000000000003 1.3000000000000003 1.3000000000000003 1.3000000000000003 1.3000000000000003 1.3000000000000003 1.3000000000000003 1.3000000000000003 1.3000000000000003 1.3000000000000003 1.3000000000000003 </DataArray>
</PointData>
<CellData/>
</Piece>
</UnstructuredGrid>
</VTKFile>
