<?xml version="1.0" ?>
<VTKFile byte_order="LittleEndian" type="UnstructuredGrid" version="0.1">
<UnstructuredGrid>
<Piece NumberOfCells="0" NumberOfPoints="8">
<Points>
<DataArray NumberOfComponents="3" format="ascii" type="Float32">12.795840510008235 2.2110952366722851 2 24.547606818090202 1.225529888840283 2 44.501641502219663 2.7166728317356434 2 75.833927712632502 1 2 11.208410869414923 1 2 22.779172406437645 2.1749176399951327 2 43.384466183514697 1 2 76.476656041831092 2.8949511593390898 2 </DataArray>
</Points>
<Cells>
<DataArray Name="connectivity" format="ascii" type="Int32">0</DataArray>
<DataArray Name="offsets" format="ascii" type="Int32">0</DataArray>
<DataArray Name="types" format="ascii" type="UInt8">1</DataArray>
</Cells>
<PointData>
<DataArray Name="Points" NumberOfComponents="3" format="ascii" type="Float32">12.795840510008235 2.2110952366722851 2 24.547606818090202 1.225529888840283 2 44.501641502219663 2.7166728317356434 2 75.833927712632502 1 2 11.208410869414923 1 2 22.779172406437645 2.1749176399951327 2 43.384466183514697 1 2 76.476656041831092 2.8949511593390898 2 </DataArray>
<DataArray Name="forces" NumberOfComponents="3" format="ascii" type="Float32">0.065628429267060362 0.049090227325611774 0.0 0.024116381774271591 -0.011604681263637449 0.0 0.032433384494734416 0.052526139766440744 0.0 -0.0060091246430615131 -0.018091881835989129 0.0 0.031814163850396149 -0.049090227325611774 0.0 0.030452369040731793 0.04994193272915972 0.0 -0.032433384494734416 -0.052526139766440744 0.0 0.0060091246430615131 0.018091881835989129 0.0 </DataArray>
<DataArray Name="radii" format="ascii" type="Float32">1 1 1 1 1 1 1 1 </DataArray>
</PointData>
<CellData/>
</Piece>
</UnstructuredGrid>
</VTKFile>
