<?xml version="1.0" ?>
<VTKFile byte_order="LittleEndian" type="UnstructuredGrid" version="0.1">
<UnstructuredGrid>
<Piece NumberOfCells="0" NumberOfPoints="167">
<Points>
<DataArray NumberOfComponents="3" format="ascii" type="Float32">1.2 1.2 2 4.2477727782654116 5.2853944212276707 2 4.5332793964906459 3.2273088219764765 2 16.399808486004734 4.7657597142089667 2 30.050529076660894 3.4829591028551632 2 39.896396584033589 6.8053738011188667 2 41.306392858938281 4.8802300506175245 2 55.628145354777409 8.7014081784242521 2 62.503313694196066 5.8928439130439667 2 64.380080821187974 4.7132197213108613 2 77.947494355093866 4.9246356416440582 2 86.320479030263442 1.4 2 89.121083424413811 2.2688260572369323 2 86.905574971955829 12.996250198610714 2 97.181865750035712 7.331902715907689 2 6.9045497001050657 8.0743495578048314 2 12.356681788845501 9.2525988897394367 2 32.702044474825662 9.551850394234549 2 41.411527739674533 6.3351675057133701 2 56.267363241858156 3.5581939830321052 2 58.763349980881287 2.9543946247545478 2 64.993308399997304 13.315388054784577 2 84.313893345027267 12.159878041401619 2 84.150607800530494 1.4 2 87.927503288255068 8.5823521950444448 2 89.269318813871408 7.9925466873792645 2 98.6 1.4 2 17.660001691423396 10.74019039742968 2 31.995489943758667 1.4 2 56.496492038960469 6.3892966438514183 2 58.172218154032258 9.2476512288208284 2 66.081621263683672 3.6383628069450871 2 87.227450170222852 4.7122820443663089 2 90.547137739905452 5.5587836482715112 2 87.958006221776202 11.255182349351154 2 96.133697574976722 6.3692005873694253 2 8.4692246353709155 9.8921678606553645 2 9.9516110987492361 4.8461278805642705 2 34.399115813441234 8.7748786470944982 2 54.239842052955701 1.4 2 58.717591905090636 4.5214684528148865 2 64.402959172218956 8.209419189693179 2 79.019247341644771 9.5073244127869003 2 85.191463094279584 4.4413826640729699 2 84.846226155499338 8.0746407313669373 2 92.530094786857958 4.9533615769700567 2 98.6 6.9843037548666711 2 17.583547453237081 5.2294902233732934 2 29.389792915862269 8.1853762284214877 2 55.609441777292894 12.222800344713267 2 59.924525577298255 6.6042178865658858 2 62.865589060032548 2.9257642138492059 2 85.510844742425817 3.2673649887886169 2 87.580156378578394 1.4 2 90.118954544661349 12.838333705745704 2 98.6 8.2753557620325715 2 7.2881581107494551 4.7636126676427653 2 14.995085369387349 8.5103207745653151 2 31.162413146734597 6.7050401198824767 2 55.352128422393498 1.4 2 57.376598571392385 2.6949458059454594 2 67.58644795192356 13.665867592227466 2 83.456549470723317 9.4661352381526918 2 82.795364811515881 3.3365769082684906 2 88.541952318410665 5.9404699245617341 2 90.924926838911475 7.2985242090329301 2 98.6 2.6235823410202874 2 16.809679045401477 8.4371913232345115 2 29.372490412993219 1.4 2 57.41525151343464 4.3213045414806102 2 58.462428381433483 7.1125036085852171 2 65.705890738762136 4.979148874407521 2 86.805136708772409 3.6081975496643377 2 89.949419399694492 3.2680872786329878 2 89.871392683318732 11.145668070844927 2 96.53850469586682 4.3134434835312181 2 8.9529314364196413 7.4311280387472625 2 12.273855414664789 7.1164176236455976 2 32.76862503089616 5.6771948338456415 2 52.598991531667721 2.9619730123530403 2 60.031395825622944 4.8828181096677943 2 63.744835760748671 6.8767955417824504 2 81.065762185021683 12.337202830763889 2 85.73822232784434 6.9025955121868368 2 84.921735318499884 9.8014256368552228 2 93.629367124200343 3.3932512948693239 2 98.6 3.7122792850604744 2 16.656621629854012 3.0111192889611695 2 31.695007236066044 4.8160161480143922 2 54.860223712956284 7.2677876151224217 2 61.367216368582689 4.2539557253822249 2 63.892433750583031 3.5309650963103811 2 86.822020604142068 2.3158085929230601 2 90.001776943655088 1.4 2 88.506802529842716 14.012120416362629 2 96.756688023206792 8.5692134611340993 2 5.9472510092274371 6.2688276066591122 2 13.696184482586828 10.382826631630493 2 31.040178691090176 8.6024728105808546 2 55.188756955397984 2.811421507027283 2 57.70285115693158 1.4 2 62.970791159081607 13.423015721620324 2 82.786479620619218 11.413668657805351 2 85.219523804083991 1.4 2 86.549437838091976 8.0529695354807469 2 90.313218687534501 9.0869168881216833 2 97.197347948665964 1.4 2 15.711009362848046 10.627158092201096 2 31.144260288122727 2.7382030717128929 2 57.027643628246999 7.9197680417694327 2 56.875900427541858 10.459074274980379 2 67.122624671739786 4.552054309921111 2 86.782386472996166 5.7996199029009601 2 89.812980459198698 4.5716812785742471 2 86.617251652823128 9.6613040685858369 2 96.89667026899248 5.5923866817140739 2 10.72749733485016 10.745720941649543 2 8.4799162943147941 5.7946136348393669 2 34.316712895900217 6.7477646081127602 2 53.114650621946822 1.4 2 58.25529682435532 5.8347926696139556 2 64.650517975747846 9.5901835281233012 2 78.531800369843978 12.167880273647945 2 85.17465704044838 5.6748143796562145 2 83.583464966319255 7.4720582901234502 2 91.211541143922091 4.1062563041567435 2 98.6 5.9353473354809863 2 18.97994700324535 5.6155947208900248 2 29.649348550288785 6.5409863254201746 2 54.581032915263776 10.276325486877646 2 60.945886971255135 7.9309749120906847 2 62.876623297930536 4.7098230040181823 2 84.315359496986375 2.8066647013999244 2 88.684288701998014 1.4 2 90.752721150937276 15.049211180887593 2 98.6 9.4793094569641259 2 5.9806346227052236 3.5811145514875213 2 13.70934361739109 7.4674067005559417 2 30.345674079191756 4.9170864922163471 2 56.542267703623985 1.4 2 58.880568356046339 1.4 2 68.090627748919033 11.75897323400071 2 81.890731665047255 9.6572899912232071 2 83.654924347057971 4.0705213597014316 2 89.655372455691264 6.674689682796231 2 91.746318212317775 5.9145796730911879 2 96.596002551190836 3.1265518012213418 2 17.321560583630411 6.9335686009411521 2 30.655956112695417 1.4 2 56.187099002579203 5.1906948196374074 2 59.587250720243127 8.5291252025896362 2 66.311437263842407 6.4442877026090626 2 88.192340096706303 3.2738025955578474 2 88.587253854670763 4.4842478167990363 2 88.80965615871942 9.8899693335037338 2 97.702517882392669 3.8627969900918431 2 10.51573091886903 8.3512372973404201 2 10.845349215674423 6.1950463281606796 2 32.702587264057279 7.4101329158391271 2 53.780357709337054 3.605873776201574 2 60.989114502828478 5.856207885613733 2 64.774690340916564 6.0819412629029248 2 80.208339597780778 10.498372803678961 2 87.680987100401111 6.9700151852536587 2 85.901628689057688 11.445677943867731 2 92.453514230404551 3.663407991751884 2 98.6 4.9791959787253788 2 </DataArray>
</Points>
<Cells>
<DataArray Name="connectivity" format="ascii" type="Int32">0</DataArray>
<DataArray Name="offsets" format="ascii" type="Int32">0</DataArray>
<DataArray Name="types" format="ascii" type="UInt8">1</DataArray>
</Cells>
<PointData>
<DataArray Name="Points" NumberOfComponents="3" format="ascii" type="Float32">1.2 1.2 2 4.2477727782654116 5.2853944212276707 2 4.5332793964906459 3.2273088219764765 2 16.399808486004734 4.7657597142089667 2 30.050529076660894 3.4829591028551632 2 39.896396584033589 6.8053738011188667 2 41.306392858938281 4.8802300506175245 2 55.628145354777409 8.7014081784242521 2 62.503313694196066 5.8928439130439667 2 64.380080821187974 4.7132197213108613 2 77.947494355093866 4.9246356416440582 2 86.320479030263442 1.4 2 89.121083424413811 2.2688260572369323 2 86.905574971955829 12.996250198610714 2 97.181865750035712 7.331902715907689 2 6.9045497001050657 8.0743495578048314 2 12.356681788845501 9.2525988897394367 2 32.702044474825662 9.551850394234549 2 41.411527739674533 6.3351675057133701 2 56.267363241858156 3.5581939830321052 2 58.763349980881287 2.9543946247545478 2 64.993308399997304 13.315388054784577 2 84.313893345027267 12.159878041401619 2 84.150607800530494 1.4 2 87.927503288255068 8.5823521950444448 2 89.269318813871408 7.9925466873792645 2 98.6 1.4 2 17.660001691423396 10.74019039742968 2 31.995489943758667 1.4 2 56.496492038960469 6.3892966438514183 2 58.172218154032258 9.2476512288208284 2 66.081621263683672 3.6383628069450871 2 87.227450170222852 4.7122820443663089 2 90.547137739905452 5.5587836482715112 2 87.958006221776202 11.255182349351154 2 96.133697574976722 6.3692005873694253 2 8.4692246353709155 9.8921678606553645 2 9.9516110987492361 4.8461278805642705 2 34.399115813441234 8.7748786470944982 2 54.239842052955701 1.4 2 58.717591905090636 4.5214684528148865 2 64.402959172218956 8.209419189693179 2 79.019247341644771 9.5073244127869003 2 85.191463094279584 4.4413826640729699 2 84.846226155499338 8.0746407313669373 2 92.530094786857958 4.9533615769700567 2 98.6 6.9843037548666711 2 17.583547453237081 5.2294902233732934 2 29.389792915862269 8.1853762284214877 2 55.609441777292894 12.222800344713267 2 59.924525577298255 6.6042178865658858 2 62.865589060032548 2.9257642138492059 2 85.510844742425817 3.2673649887886169 2 87.580156378578394 1.4 2 90.118954544661349 12.838333705745704 2 98.6 8.2753557620325715 2 7.2881581107494551 4.7636126676427653 2 14.995085369387349 8.5103207745653151 2 31.162413146734597 6.7050401198824767 2 55.352128422393498 1.4 2 57.376598571392385 2.6949458059454594 2 67.58644795192356 13.665867592227466 2 83.456549470723317 9.4661352381526918 2 82.795364811515881 3.3365769082684906 2 88.541952318410665 5.9404699245617341 2 90.924926838911475 7.2985242090329301 2 98.6 2.6235823410202874 2 16.809679045401477 8.4371913232345115 2 29.372490412993219 1.4 2 57.41525151343464 4.3213045414806102 2 58.462428381433483 7.1125036085852171 2 65.705890738762136 4.979148874407521 2 86.805136708772409 3.6081975496643377 2 89.949419399694492 3.2680872786329878 2 89.871392683318732 11.145668070844927 2 96.53850469586682 4.3134434835312181 2 8.9529314364196413 7.4311280387472625 2 12.273855414664789 7.1164176236455976 2 32.76862503089616 5.6771948338456415 2 52.598991531667721 2.9619730123530403 2 60.031395825622944 4.8828181096677943 2 63.744835760748671 6.8767955417824504 2 81.065762185021683 12.337202830763889 2 85.73822232784434 6.9025955121868368 2 84.921735318499884 9.8014256368552228 2 93.629367124200343 3.3932512948693239 2 98.6 3.7122792850604744 2 16.656621629854012 3.0111192889611695 2 31.695007236066044 4.8160161480143922 2 54.860223712956284 7.2677876151224217 2 61.367216368582689 4.2539557253822249 2 63.892433750583031 3.5309650963103811 2 86.822020604142068 2.3158085929230601 2 90.001776943655088 1.4 2 88.506802529842716 14.012120416362629 2 96.756688023206792 8.5692134611340993 2 5.9472510092274371 6.2688276066591122 2 13.696184482586828 10.382826631630493 2 31.040178691090176 8.6024728105808546 2 55.188756955397984 2.811421507027283 2 57.70285115693158 1.4 2 62.970791159081607 13.423015721620324 2 82.786479620619218 11.413668657805351 2 85.219523804083991 1.4 2 86.549437838091976 8.0529695354807469 2 90.313218687534501 9.0869168881216833 2 97.197347948665964 1.4 2 15.711009362848046 10.627158092201096 2 31.144260288122727 2.7382030717128929 2 57.027643628246999 7.9197680417694327 2 56.875900427541858 10.459074274980379 2 67.122624671739786 4.552054309921111 2 86.782386472996166 5.7996199029009601 2 89.812980459198698 4.5716812785742471 2 86.617251652823128 9.6613040685858369 2 96.89667026899248 5.5923866817140739 2 10.72749733485016 10.745720941649543 2 8.4799162943147941 5.7946136348393669 2 34.316712895900217 6.7477646081127602 2 53.114650621946822 1.4 2 58.25529682435532 5.8347926696139556 2 64.650517975747846 9.5901835281233012 2 78.531800369843978 12.167880273647945 2 85.17465704044838 5.6748143796562145 2 83.583464966319255 7.4720582901234502 2 91.211541143922091 4.1062563041567435 2 98.6 5.9353473354809863 2 18.97994700324535 5.6155947208900248 2 29.649348550288785 6.5409863254201746 2 54.581032915263776 10.276325486877646 2 60.945886971255135 7.9309749120906847 2 62.876623297930536 4.7098230040181823 2 84.315359496986375 2.8066647013999244 2 88.684288701998014 1.4 2 90.752721150937276 15.049211180887593 2 98.6 9.4793094569641259 2 5.9806346227052236 3.5811145514875213 2 13.70934361739109 7.4674067005559417 2 30.345674079191756 4.9170864922163471 2 56.542267703623985 1.4 2 58.880568356046339 1.4 2 68.090627748919033 11.75897323400071 2 81.890731665047255 9.6572899912232071 2 83.654924347057971 4.0705213597014316 2 89.655372455691264 6.674689682796231 2 91.746318212317775 5.9145796730911879 2 96.596002551190836 3.1265518012213418 2 17.321560583630411 6.9335686009411521 2 30.655956112695417 1.4 2 56.187099002579203 5.1906948196374074 2 59.587250720243127 8.5291252025896362 2 66.311437263842407 6.4442877026090626 2 88.192340096706303 3.2738025955578474 2 88.587253854670763 4.4842478167990363 2 88.80965615871942 9.8899693335037338 2 97.702517882392669 3.8627969900918431 2 10.51573091886903 8.3512372973404201 2 10.845349215674423 6.1950463281606796 2 32.702587264057279 7.4101329158391271 2 53.780357709337054 3.605873776201574 2 60.989114502828478 5.856207885613733 2 64.774690340916564 6.0819412629029248 2 80.208339597780778 10.498372803678961 2 87.680987100401111 6.9700151852536587 2 85.901628689057688 11.445677943867731 2 92.453514230404551 3.663407991751884 2 98.6 4.9791959787253788 2 </DataArray>
<DataArray Name="forces" NumberOfComponents="3" format="ascii" type="Float32">-0.92849854388910869 -0.11236347983068577 0.0 -0.45157734245394743 0.12482222912014115 0.0 -0.60750522341598179 0.15493956080301496 0.0 -0.079876524191189291 0.13171871894480547 0.0 0.043526774378135041 0.33029627088833646 0.0 0.035218845493305118 0.42539955278904823 0.0 -0.39404456634127494 0.33560247395801873 0.0 -0.15481330415051742 0.63244676160411828 0.0 -0.10385886818510826 0.32566367391199569 0.0 -0.10173861734391243 0.31693773797332736 0.0 -0.12285909897792702 0.059004797110185359 0.0 -0.12468663635187645 -3.0888285222731717 0.0 -0.10291745160585106 0.14040809635368234 0.0 -0.57210113505693838 0.99406188707661902 0.0 -0.083003994521866159 0.3718001878345783 0.0 -0.5550772124247545 0.58864850376746891 0.0 -0.059891234765748314 0.38114458923331007 0.0 0.17326652187438499 0.63413090311544762 0.0 -0.057274894718849313 0.12334299657529052 0.0 -0.18612275100904413 0.42848012249981077 0.0 0.11113447032027268 0.37921529341771965 0.0 0.095152092370160646 0.96061833469004732 0.0 -0.13687794857646696 1.2502873627885869 0.0 -0.042805978719087742 -2.2148152072104419 0.0 -0.1399167005948361 0.52712133275363238 0.0 -0.027569884229701636 0.5595868973967969 0.0 4.4907026378642847 -2.3324745310587804 0.0 0.24535283758208337 1.1171675884382659 0.0 -0.022601457300909455 -1.9104323933084069 0.0 -0.15731215770460522 0.46919630622155006 0.0 -0.15997333473772402 0.50637148837752788 0.0 -0.059133255002264962 0.29961520110654605 0.0 -0.046645172767300291 0.44175773975068311 0.0 -0.039130078560753234 0.49987110916301658 0.0 -0.014949598670979891 0.94420972316554319 0.0 0.056738193106957185 0.41249483556519384 0.0 -0.35442006300502171 0.60304552640623821 0.0 -0.284958125706404 0.43844638403711 0.0 0.20446803009244219 0.68272657511268631 0.0 -0.22580162423714453 -1.8136095714789706 0.0 -0.089813209561268037 0.37978556961158372 0.0 -0.055467097777564131 0.55206882695275916 0.0 -0.16434603844679041 0.61014755040919133 0.0 -0.22092439496198044 0.27545010613720511 0.0 -0.14754965835494471 0.45717301995465226 0.0 -0.026502235680362168 0.21645712531162986 0.0 2.2980522857903907 0.61996058927397857 0.0 -0.11587796149401663 0.47584619550426965 0.0 -0.039892851249538008 0.4776462568427402 0.0 -0.088206701480202876 1.0478729980114654 0.0 -0.076297829609998757 0.49153973851237065 0.0 -0.16071361980147364 0.26840181870120799 0.0 -0.11293271287504421 0.31587230035126745 0.0 -0.055973044968162133 -2.990301317609608 0.0 -0.097975421269518748 0.67347974482650508 0.0 1.9783287331236088 0.65117134858496595 0.0 -0.31467511906493817 0.31538041921203369 0.0 -0.13314622914599916 0.58788186667173803 0.0 0.06653996931820072 0.51193135295217251 0.0 -0.10787824784750186 -2.0876847875912987 0.0 -0.12860968487039426 0.40126142047394409 0.0 0.1389271775061163 1.0014834113412745 0.0 -0.10654777433501117 0.73535955091869987 0.0 -0.21019054111431601 0.02878949549437948 0.0 -0.17311930436571632 0.41780125235465326 0.0 -4.9221323593640065e-05 0.37218339447618654 0.0 2.9883206394325921 0.28215569275956187 0.0 0.0094078059662001667 0.88899935394464258 0.0 0.0047889616061256302 -2.7397178054661611 0.0 -0.10796993863818938 0.26411995940674993 0.0 -0.03951480672796237 0.35372260178404569 0.0 -0.018127558711212396 0.34053669163337263 0.0 -0.18516313434355047 0.2887785319507063 0.0 -0.055398534629166718 0.32105377607743713 0.0 -0.12625654310060985 0.64784409427199063 0.0 0.035536033104388132 0.44002926161829237 0.0 -0.33052242866970161 0.38960730594708459 0.0 -0.16802348564753167 0.41175104063049678 0.0 0.21957704574520817 0.37996734748431815 0.0 -0.22123201629716061 0.23723915709102872 0.0 -0.00071467940914637929 0.4677551478795543 0.0 -0.048125905971562188 0.4300998043642732 0.0 -0.16253864873649609 1.1279447719295972 0.0 -0.1240673444574264 0.51770225882539067 0.0 -0.27216178858526996 0.6606027545050942 0.0 -0.034299575836843843 0.13053781590708696 0.0 3.4909546045025914 0.092848882031485003 0.0 -0.11521821818162103 0.21185247330992318 0.0 0.21209348471932563 0.50377702391278134 0.0 -0.27533656148781949 0.44388987301876864 0.0 -0.059377549899307269 0.14604895039250265 0.0 0.021682835236078161 0.18474884407047348 0.0 -0.20371784338121526 0.21906038135230124 0.0 -0.022639319593739993 -2.9649238829551749 0.0 -0.18901016679223137 0.82754347466616673 0.0 -0.11854104311018143 0.55811315758404045 0.0 -0.55277370254768532 0.39448962157614748 0.0 -0.261744294845491 1.0138343694756815 0.0 0.13062524545758891 0.62053213641478877 0.0 -0.39934539608363195 0.31483896031771164 0.0 -0.17392890159469587 -2.3675035006267326 0.0 -0.33091068939159146 1.0024989202113139 0.0 -0.14569897857712907 0.6538993485639879 0.0 -0.1313323830138915 -2.399887066161241 0.0 -0.10420907326035578 0.59348312559485739 0.0 -0.017770873200611326 0.58723386054944648 0.0 -0.13761408910939552 -2.3526403370292144 0.0 -0.058157339658384766 0.90280869949108933 0.0 0.23379381533200935 0.39425831921438925 0.0 -0.085199449849840625 0.49092368949528753 0.0 -0.18132129965080562 0.76386038749853058 0.0 -0.013116343735773923 0.19339496941371592 0.0 -0.25823646790911892 0.40699382009073104 0.0 -0.017663871972340695 0.44244951888856199 0.0 -0.12001747270886265 0.65786970479648288 0.0 0.082754794826908395 0.42185201083233703 0.0 -0.038198221942831893 0.9436436743293164 0.0 -0.39210386248044699 0.43553094321732738 0.0 0.21783319776938581 0.4686082783487181 0.0 -0.50305797741658398 -1.736135187906793 0.0 -0.10582972765299668 0.31763234495374293 0.0 -0.3397340777844986 0.50292091220868074 0.0 -0.2267258343607681 0.98357278982572649 0.0 -0.15045563385983216 0.43503586528606963 0.0 -0.23052701208628087 0.60534102759927433 0.0 -0.16040068523307949 0.24084506866859812 0.0 2.2647201191581949 0.41513261086394015 0.0 0.0099324702026116762 0.13091049492141399 0.0 0.17417844452007619 0.41402740224191081 0.0 -0.29395089279562181 0.8421372115282526 0.0 -0.15526686730186523 0.49556851933882601 0.0 0.0050851626931662786 0.32601341644031878 0.0 -0.51731175739333068 0.34011246378330195 0.0 -0.056603530744200381 -3.2442742235277158 0.0 -0.025261478902478651 0.89728513909139662 0.0 2.0828215017688825 0.60216918770361127 0.0 -0.43161533256169904 0.19581743530838391 0.0 -0.052357081463406702 0.40419077615393678 0.0 0.15816993446066446 0.2631033502944069 0.0 -0.083459007567078913 -2.3565638980966854 0.0 -0.15855464627860039 -2.3994625015381614 0.0 0.22344322713635845 0.85066632973832035 0.0 -0.16427866036546368 0.63891002349513315 0.0 -0.34264686336387873 0.17506449363454157 0.0 -0.1332089231231815 0.46145986515879295 0.0 0.06869286164299597 0.35747340587111243 0.0 -0.054465419283681309 0.15516831063887651 0.0 -0.22968981515659015 0.4854703234398014 0.0 -0.017861881269584434 -2.5032309720038688 0.0 -0.1767564382107536 0.49574640058555985 0.0 -0.027972607419865847 0.66970372931598043 0.0 0.043511252821934576 0.37195359447189691 0.0 -0.082417196102261669 0.3607105925971863 0.0 -0.054369252563671484 0.22113718228587911 0.0 -0.21160943226703699 0.51388357614106195 0.0 -0.15863995302800382 -0.04951157806378581 0.0 -0.29603047302193319 0.61673165033901489 0.0 -0.10418157708546082 0.30224139400255601 0.0 0.12060002213924248 0.44980455725744667 0.0 -0.22254926661546853 0.06727655207652794 0.0 -0.11430502876905141 0.40129907611802357 0.0 0.029189652981738368 0.30056007662024437 0.0 -0.11451527374309006 0.71995273700128903 0.0 -0.075389737197703088 0.4526618321787913 0.0 -0.15800769629180406 0.41385883351936026 0.0 -0.17652281872992898 0.23125318747285456 0.0 2.4778824976147868 0.26586313354712088 0.0 </DataArray>
<DataArray Name="radii" format="ascii" type="Float32">1.2 1.2 1 1.4 1.4 1.4 1 1.4 1.4 1.4 1.4 1.4 1.4 1.4 1.4 1.4 1.4 1.4 1 1.4 1.4 1.4 1.4 1.4 1.4 1.4 1.4 1.4 1.4 1.4 1.4 1.4 1.4 1.4 1.4 1.4 1.4 1.4 1.4 1.4 1.4 1.4 1.4 1.4 1.4 1.4 1.4 1.4 1.4 1.4 1.4 1.4 1.4 1.4 1.4 1.4 1.4 1.4 1.4 1.4 1.4 1.4 1.4 1.4 1.4 1.4 1.4 1.4 1.4 1.4 1.4 1.4 1.4 1.4 1.4 1.4 1.4 1.4 1.4 1.4 1.4 1.4 1.4 1.4 1.4 1.4 1.4 1.4 1.4 1.4 1.4 1.4 1.4 1.4 1.4 1.4 1.4 1.4 1.4 1.4 1.4 1.4 1.4 1.4 1.4 1.4 1.4 1.4 1.4 1.4 1.4 1.4 1.4 1.4 1.4 1.4 1.4 1.4 1.4 1.4 1.4 1.4 1.4 1.4 1.4 1.4 1.4 1.4 1.4 1.4 1.4 1.4 1.4 1.4 1.4 1.4 1.4 1.4 1.4 1.4 1.4 1.4 1.4 1.4 1.4 1.4 1.4 1.4 1.4 1.4 1.4 1.4 1.4 1.4 1.4 1.4 1.4 1.4 1.4 1.4 1.4 1.4 1.4 1.4 1.4 1.4 1.4 </DataArray>
</PointData>
<CellData/>
</Piece>
</UnstructuredGrid>
</VTKFile>
