<?xml version="1.0" ?>
<VTKFile byte_order="LittleEndian" type="UnstructuredGrid" version="0.1">
<UnstructuredGrid>
<Piece NumberOfCells="0" NumberOfPoints="32">
<Points>
<DataArray NumberOfComponents="3" format="ascii" type="Float32">3.8024377732429047 3.0429096232404671 2 7.0476293383567006 1.1 2 15.220467069836486 1.1 2 18.345449244030611 1.1 2 20.262309093683744 1.1 2 36.993909379230452 2.3965063479642823 2 38.29121313766138 1.1 2 42.00990448583557 1.923565094080568 2 48.866588160860047 2.7638754456309242 2 51.202711408083943 1.9654974563307175 2 52.570091514257413 3.5381114096978701 2 64.889673078536177 2.5746021410990623 2 73.480110712551621 2.1725718830610932 2 78.217802169081793 1.1082890078751721 2 80.020165824512461 1.1 2 90.696270237149264 1.1 2 3.1418055697214271 1.1 2 5.0689701762784161 1.1 2 16.80263139295241 2.1154548563704489 2 18.785987453753336 2.8470485214162493 2 22.17183320510442 1.3924175108636554 2 35.469587295097924 1.1 2 39.385419411961358 2.9785224038738876 2 40.263565714758826 1.1 2 47.621864424009182 1.1 2 49.672931165782217 1.1 2 52.690110034278966 1.1 2 66.059264145680601 1.1 2 74.894312350181835 1.1 2 78.515733808661722 3.3146418066006595 2 80.381519021084017 2.9003562125315612 2 91.65641504911116 2.5463488318174141 2 </DataArray>
</Points>
<Cells>
<DataArray Name="connectivity" format="ascii" type="Int32">0</DataArray>
<DataArray Name="offsets" format="ascii" type="Int32">0</DataArray>
<DataArray Name="types" format="ascii" type="UInt8">1</DataArray>
</Cells>
<PointData>
<DataArray Name="Points" NumberOfComponents="3" format="ascii" type="Float32">3.8024377732429047 3.0429096232404671 2 7.0476293383567006 1.1 2 15.220467069836486 1.1 2 18.345449244030611 1.1 2 20.262309093683744 1.1 2 36.993909379230452 2.3965063479642823 2 38.29121313766138 1.1 2 42.00990448583557 1.923565094080568 2 48.866588160860047 2.7638754456309242 2 51.202711408083943 1.9654974563307175 2 52.570091514257413 3.5381114096978701 2 64.889673078536177 2.5746021410990623 2 73.480110712551621 2.1725718830610932 2 78.217802169081793 1.1082890078751721 2 80.020165824512461 1.1 2 90.696270237149264 1.1 2 3.1418055697214271 1.1 2 5.0689701762784161 1.1 2 16.80263139295241 2.1154548563704489 2 18.785987453753336 2.8470485214162493 2 22.17183320510442 1.3924175108636554 2 35.469587295097924 1.1 2 39.385419411961358 2.9785224038738876 2 40.263565714758826 1.1 2 47.621864424009182 1.1 2 49.672931165782217 1.1 2 52.690110034278966 1.1 2 66.059264145680601 1.1 2 74.894312350181835 1.1 2 78.515733808661722 3.3146418066006595 2 80.381519021084017 2.9003562125315612 2 91.65641504911116 2.5463488318174141 2 </DataArray>
<DataArray Name="forces" NumberOfComponents="3" format="ascii" type="Float32">-0.012441619128319953 0.086710592355600996 0.0 0.069548556518975957 -0.20053530017542573 0.0 -0.095322885625708287 -0.37840622925790462 0.0 -0.09168310505038757 -0.59792214864755855 0.0 -0.035679662280414401 -0.18258275932378226 0.0 0.019299963524591929 0.062555785991224605 0.0 0.017742680862230742 -0.28569501779036005 0.0 0.11918179741809454 -0.03610342749955886 0.0 -0.054790659373247771 0.071030709409797332 0.0 0.02057287480903533 -0.000708931597628637 0.0 -0.0099656639176805006 0.050113807573290259 0.0 -0.012621194697675059 -0.048089224454783891 0.0 -0.059745078861112556 0.16670305180238579 0.0 0.043526306344864318 0.029946312205062164 0.0 0.080432087104418973 -0.45614439075732521 0.0 -0.10339672900436769 -0.57778814599338801 0.0 0.033533457769424235 -0.16609740604056594 0.0 0.051476984339089427 0.0 0.0 -0.069507096688559616 0.089319162848753547 0.0 0.006578181791988047 0.11980841694550878 0.0 0.063889889400900013 -0.044441332256738013 0.0 -0.029981687363218851 -0.28393577651744412 0.0 -0.052649896060432841 0.073154753693461055 0.0 0.040089000117513672 -0.24560599607799422 0.0 -0.10193315323393545 -0.12589960840379463 0.0 -0.086453594164517006 -0.5457490454032653 0.0 0.077831596153915911 -0.39361094424804294 0.0 0.067291293030230889 -0.23338822717183061 0.0 -0.091847880897077572 -0.23194962318291568 0.0 -0.0021600263007344744 0.066829629590444709 0.0 -0.05368245150922113 0.072280390673666622 0.0 -0.031599628047079942 0.15690467629739796 0.0 </DataArray>
<DataArray Name="radii" format="ascii" type="Float32">1.1 1.1 1.1 1.1 1.1 1.1 1.1 1.1 1.1 1.1 1.1 1.1 1.1 1.1 1.1 1.1 1.1 1.1 1.1 1.1 1.1 1.1 1.1 1.1 1.1 1.1 1.1 1.1 1.1 1.1 1.1 1.1 </DataArray>
</PointData>
<CellData/>
</Piece>
</UnstructuredGrid>
</VTKFile>
