<?xml version="1.0" ?>
<VTKFile byte_order="LittleEndian" type="UnstructuredGrid" version="0.1">
<UnstructuredGrid>
<Piece NumberOfCells="0" NumberOfPoints="16">
<Points>
<DataArray NumberOfComponents="3" format="ascii" type="Float32">12.776262075325855 6.0664837397772589 2 24.100875613568231 1.5999999999999999 2 45.443588469887501 3.9170842600417499 2 74.871825473406759 1.5999999999999999 2 10.464048119767957 4.0907996819531451 2 22.213419600763462 3.4854593741249071 2 42.606777366570981 3.8851638683560168 2 78.292734252215652 6.0581885550517987 2 15.88025552658449 4.079971250464796 2 26.504300020395924 1.5999999999999999 2 44.166769733677803 6.2710916252942033 2 77.135837489882405 1.5999999999999999 2 12.22696537168687 1.5999999999999999 2 23.618581660800729 6.0285837152018775 2 44.442072751747382 1.5999999999999999 2 76.021365534795862 4.1189679653591096 2 </DataArray>
</Points>
<Cells>
<DataArray Name="connectivity" format="ascii" type="Int32">0</DataArray>
<DataArray Name="offsets" format="ascii" type="Int32">0</DataArray>
<DataArray Name="types" format="ascii" type="UInt8">1</DataArray>
</Cells>
<PointData>
<DataArray Name="Points" NumberOfComponents="3" format="ascii" type="Float32">12.776262075325855 6.0664837397772589 2 24.100875613568231 1.5999999999999999 2 45.443588469887501 3.9170842600417499 2 74.871825473406759 1.5999999999999999 2 10.464048119767957 4.0907996819531451 2 22.213419600763462 3.4854593741249071 2 42.606777366570981 3.8851638683560168 2 78.292734252215652 6.0581885550517987 2 15.88025552658449 4.079971250464796 2 26.504300020395924 1.5999999999999999 2 44.166769733677803 6.2710916252942033 2 77.135837489882405 1.5999999999999999 2 12.22696537168687 1.5999999999999999 2 23.618581660800729 6.0285837152018775 2 44.442072751747382 1.5999999999999999 2 76.021365534795862 4.1189679653591096 2 </DataArray>
<DataArray Name="forces" NumberOfComponents="3" format="ascii" type="Float32">-0.00041174585284460552 0.70385097971331911 0.0 0.0083945200491353233 -1.168036501752546 0.0 0.039040529979829985 0.74603404426917708 0.0 -0.030358486194573014 -0.47855377407785182 0.0 -0.091884860792664474 0.73820901597367472 0.0 -0.087392347444622848 0.72571263373654316 0.0 0.036407324812090386 0.69574111038026076 0.0 0.063966337771131504 0.69425198289210255 0.0 -0.035129828857080436 0.69649715435273518 0.0 0.0010956205455626422 -0.83031504761081454 0.0 -0.057823267539013262 0.7546284857224097 0.0 -0.050070289824497655 -1.2092455662399875 0.0 -0.030480931681232892 -0.99427821704619868 0.0 -0.010312771344116761 0.73179623479481992 0.0 0.010007363901502142 -0.83360637512875124 0.0 -0.023723331759223698 0.75253373792469858 0.0 </DataArray>
<DataArray Name="radii" format="ascii" type="Float32">1.5999999999999999 1.5999999999999999 1.5999999999999999 1.5999999999999999 1.5999999999999999 1.5999999999999999 1.5999999999999999 1.5999999999999999 1.5999999999999999 1.5999999999999999 1.5999999999999999 1.5999999999999999 1.5999999999999999 1.5999999999999999 1.5999999999999999 1.5999999999999999 </DataArray>
</PointData>
<CellData/>
</Piece>
</UnstructuredGrid>
</VTKFile>
