<?xml version="1.0" ?>
<VTKFile byte_order="LittleEndian" type="UnstructuredGrid" version="0.1">
<UnstructuredGrid>
<Piece NumberOfCells="0" NumberOfPoints="27">
<Points>
<DataArray NumberOfComponents="3" format="ascii" type="Float32">1.2 1.2 2 5.3197991210682805 3.1777572424075413 2 8.4454483224593631 2.8804084731612094 2 15.692715393154886 3.836931588102205 2 30.355750625888867 1.4 2 39.607027511945191 3.166395644986141 2 43.399980729232325 2.5656808870550694 2 57.974399670299782 3.9678660460407484 2 60.667396108390548 3.3643974823454621 2 64.841757246849937 3.6918977533527482 2 79.460423878430518 4.4544699571163928 2 87.444791934897069 1.4 2 89.856209032690614 1.4 2 89.95326707888978 6.3048919073829737 2 98.6 3.4320152815489284 2 10.306314226503989 4.2244962514028286 2 12.98683486924763 3.9987081341822703 2 31.151594670939005 4.2023628190254732 2 41.732822510391905 3.5844006039584109 2 56.593372863138498 1.4 2 59.143761434483011 1.4 2 65.01780814935934 6.4413557214397335 2 83.005416321528841 6.2103142549392558 2 85.051803462744047 1.4 2 88.314182312715516 4.0120083260009318 2 91.028454328266719 3.7927505846005669 2 97.169231654535039 1.4 2 </DataArray>
</Points>
<Cells>
<DataArray Name="connectivity" format="ascii" type="Int32">0</DataArray>
<DataArray Name="offsets" format="ascii" type="Int32">0</DataArray>
<DataArray Name="types" format="ascii" type="UInt8">1</DataArray>
</Cells>
<PointData>
<DataArray Name="Points" NumberOfComponents="3" format="ascii" type="Float32">1.2 1.2 2 5.3197991210682805 3.1777572424075413 2 8.4454483224593631 2.8804084731612094 2 15.692715393154886 3.836931588102205 2 30.355750625888867 1.4 2 39.607027511945191 3.166395644986141 2 43.399980729232325 2.5656808870550694 2 57.974399670299782 3.9678660460407484 2 60.667396108390548 3.3643974823454621 2 64.841757246849937 3.6918977533527482 2 79.460423878430518 4.4544699571163928 2 87.444791934897069 1.4 2 89.856209032690614 1.4 2 89.95326707888978 6.3048919073829737 2 98.6 3.4320152815489284 2 10.306314226503989 4.2244962514028286 2 12.98683486924763 3.9987081341822703 2 31.151594670939005 4.2023628190254732 2 41.732822510391905 3.5844006039584109 2 56.593372863138498 1.4 2 59.143761434483011 1.4 2 65.01780814935934 6.4413557214397335 2 83.005416321528841 6.2103142549392558 2 85.051803462744047 1.4 2 88.314182312715516 4.0120083260009318 2 91.028454328266719 3.7927505846005669 2 97.169231654535039 1.4 2 </DataArray>
<DataArray Name="forces" NumberOfComponents="3" format="ascii" type="Float32">-0.014716032759839834 -0.00059260957276111839 0.0 -0.018545988283902724 0.039475370125834387 0.0 -0.01922802554779017 0.0088027961452074865 0.0 0.028837465362419476 0.039923694125565824 0.0 -0.0037311526314795715 -0.012724443330936523 0.0 -0.003481027612734635 0.027044103345381661 0.0 -0.024788704048492975 -0.00396180362466198 0.0 -0.015244627178399802 0.013324612138312998 0.0 0.037744390158418628 0.11776073018257605 0.0 -0.050309603571330776 0.043563130737141853 0.0 -0.08295734228716628 0.023765148677700913 0.0 0.0044016975791719738 -0.048211260419691156 0.0 0.018805577415394022 -0.10923397007831241 0.0 -0.03362347788261151 0.062051066770800474 0.0 0.42596309438748453 0.1885753747339779 0.0 -0.027414140151798161 0.073934651119734629 0.0 0.0037792077201661972 0.048909779426111605 0.0 0.021974158977122231 0.046438881141629182 0.0 -0.0081782649969867408 0.03067751705274635 0.0 0.0090872250967857227 -0.074460127254987254 0.0 0.056299434546805721 -0.25953586912519711 0.0 0.0027507565152541432 0.046220263633721476 0.0 0.043101739143360011 0.079520671173757135 0.0 -0.020108332486771019 0.0 0.0 -0.063387700284085385 0.054660346909357983 0.0 -0.049922234710987307 0.054138946685705756 0.0 0.11474494474135852 -0.2680939934685676 0.0 </DataArray>
<DataArray Name="radii" format="ascii" type="Float32">1.2 1.2 1 1.4 1.4 1.2 1 1.4 1.4 1.4 1 1.4 1.4 1.4 1.4 1.4 1.4 1.4 1 1.4 1.4 1.4 1.4 1.4 1.4 1.4 1.4 </DataArray>
</PointData>
<CellData/>
</Piece>
</UnstructuredGrid>
</VTKFile>
