<?xml version="1.0" ?>
<VTKFile byte_order="LittleEndian" type="UnstructuredGrid" version="0.1">
<UnstructuredGrid>
<Piece NumberOfCells="0" NumberOfPoints="32">
<Points>
<DataArray NumberOfComponents="3" format="ascii" type="Float32">3.9096859398344481 2.76074952939606 2 6.7183861877588722 1.2843462675376431 2 15.63547268245132 1.05 2 18.637634376933402 1.05 2 20.33233865446741 1.05 2 37.014010200052937 2.136938744196788 2 38.323082423653219 1.05 2 41.51177021966631 1.997341500309828 2 48.596685213169536 2.643546403308743 2 51.10121867159453 2.1222391770137152 2 52.696023761821998 3.0359752939575482 2 64.770241055651908 1.9413035320823933 2 73.761594906798365 1.6985243893499686 2 78.107105150321871 1.05 2 79.76386440465015 1.05 2 91.15192942883337 1.05 2 3.1553427592670391 1.05 2 5.026594070202794 1.05 2 17.012672786989874 1.7552295144891918 2 18.715078010977869 2.6837629778733221 2 21.659862091183875 1.6892435831192931 2 35.784317864701926 1.05 2 39.459155528021547 2.6921705948809245 2 40.200459141549338 1.05 2 48.087370582730529 1.05 2 49.843701901545288 1.05 2 52.328876461823846 1.05 2 65.639131573643212 1.05 2 74.996486144600325 1.05 2 78.452318234674408 2.9399854474509439 2 80.229018630074265 2.627428792501592 2 92.110662576252579 1.7206801531165838 2 </DataArray>
</Points>
<Cells>
<DataArray Name="connectivity" format="ascii" type="Int32">0</DataArray>
<DataArray Name="offsets" format="ascii" type="Int32">0</DataArray>
<DataArray Name="types" format="ascii" type="UInt8">1</DataArray>
</Cells>
<PointData>
<DataArray Name="Points" NumberOfComponents="3" format="ascii" type="Float32">3.9096859398344481 2.76074952939606 2 6.7183861877588722 1.2843462675376431 2 15.63547268245132 1.05 2 18.637634376933402 1.05 2 20.33233865446741 1.05 2 37.014010200052937 2.136938744196788 2 38.323082423653219 1.05 2 41.51177021966631 1.997341500309828 2 48.596685213169536 2.643546403308743 2 51.10121867159453 2.1222391770137152 2 52.696023761821998 3.0359752939575482 2 64.770241055651908 1.9413035320823933 2 73.761594906798365 1.6985243893499686 2 78.107105150321871 1.05 2 79.76386440465015 1.05 2 91.15192942883337 1.05 2 3.1553427592670391 1.05 2 5.026594070202794 1.05 2 17.012672786989874 1.7552295144891918 2 18.715078010977869 2.6837629778733221 2 21.659862091183875 1.6892435831192931 2 35.784317864701926 1.05 2 39.459155528021547 2.6921705948809245 2 40.200459141549338 1.05 2 48.087370582730529 1.05 2 49.843701901545288 1.05 2 52.328876461823846 1.05 2 65.639131573643212 1.05 2 74.996486144600325 1.05 2 78.452318234674408 2.9399854474509439 2 80.229018630074265 2.627428792501592 2 92.110662576252579 1.7206801531165838 2 </DataArray>
<DataArray Name="forces" NumberOfComponents="3" format="ascii" type="Float32">-0.071630852162459013 0.14533102169564638 0.0 -0.1151165930255531 -0.13449236606830176 0.0 0.089408742508458261 -0.41375734456825641 0.0 -0.12501350345753134 -0.59020013455090159 0.0 -0.1641242710211781 -0.27717630331167026 0.0 0.14783362382231321 0.14447245345164295 0.0 0.028068467018092014 -0.3419610456561617 0.0 -0.16093142747291039 0.16316976352835089 0.0 0.0056423309995278295 0.10062869403812284 0.0 -0.084423094744970506 0.10183716078263838 0.0 -0.20049090295921254 0.23424652317649766 0.0 0.11942546955281241 0.087443308927719676 0.0 0.14522447818896822 -0.028594732526982247 0.0 -0.014221789255798083 -0.16734977278106536 0.0 -0.066431573817590989 -0.53398606318538633 0.0 -0.069981571012409871 -0.8362623945351354 0.0 -0.032290602908721044 -0.23913976177483681 0.0 -0.13205132410636405 -0.1084661493221829 0.0 0.070991942069230735 0.096634331955496658 0.0 0.22504826486055882 0.025767424364614253 0.0 -0.062035086061131353 -0.067614690750208539 0.0 0.18265749473636422 -0.44899600075764395 0.0 0.012522019523018374 0.14249729929490329 0.0 -0.049469209021215016 -0.55603543847284165 0.0 0.098087545514212615 -0.65966258477718309 0.0 0.052206602680457515 -0.35121549523858925 0.0 -0.14794466887457197 -0.5305243234708048 0.0 0.086390866210847461 -0.81561121543887927 0.0 0.10677536639321522 -0.39789058210315487 0.0 -0.0097213672411363694 0.099816369018993337 0.0 -0.12328662398284818 0.09240036672718395 0.0 -0.031219988682779205 0.037709090461115202 0.0 </DataArray>
<DataArray Name="radii" format="ascii" type="Float32">1.05 1.05 1.05 1.05 1.05 1.05 1.05 1.05 1.05 1.05 1.05 1.05 1.05 1.05 1.05 1.05 1.05 1.05 1.05 1.05 1.05 1.05 1.05 1.05 1.05 1.05 1.05 1.05 1.05 1.05 1.05 1.05 </DataArray>
</PointData>
<CellData/>
</Piece>
</UnstructuredGrid>
</VTKFile>
