<?xml version="1.0" ?>
<VTKFile byte_order="LittleEndian" type="UnstructuredGrid" version="0.1">
<UnstructuredGrid>
<Piece NumberOfCells="0" NumberOfPoints="167">
<Points>
<DataArray NumberOfComponents="3" format="ascii" type="Float32">1.2 1.2 2 4.6747815951360021 5.2380804422071066 2 5.1714513586905193 3.0576368827102582 2 16.585796422952274 4.5969747849090599 2 30.101701954688533 3.3541749183419829 2 39.782739573455032 6.2956494178843476 2 41.756908032994801 4.5336334281306998 2 55.788118801079911 8.2553622764251493 2 62.684416045765019 5.6507694279228513 2 64.47252947169369 4.6397648749616005 2 78.086029645750202 5.0790425712500351 2 86.443125060849809 1 2 89.193394228881218 2.1177174741941638 2 87.368642533074549 12.141199418537434 2 97.261665568399096 6.9253776172680972 2 7.3732981125074248 7.4173163501788588 2 12.311461037659901 9.2147164703914122 2 32.487027319634365 8.7730268438786823 2 41.577672077760312 6.2422338029044235 2 56.280576566751776 3.2630010940480325 2 58.709792195837942 2.6068733491696876 2 64.803104585972434 12.432634434279722 2 84.369180737767465 11.122550396137898 2 84.319177961629762 1 2 88.059269705573172 8.2368348741100235 2 89.341233475243413 7.5799885302144361 2 99.0 1 2 17.449262974364128 9.8534572214566243 2 32.063550731248782 1 2 56.666295221865525 6.0584853043532583 2 58.250376786208847 8.8027460188512521 2 66.155552648591595 3.5853850649092109 2 87.347035230124888 4.4274238241263912 2 90.50656145407396 5.3048737591574016 2 87.837144874012864 10.486602734100021 2 96.151681420267863 5.8038528445830622 2 9.0697612266582137 9.7357533571601245 2 10.26671156592406 4.6609162103068984 2 34.192574929214771 8.2429975099025707 2 54.364819371957502 1.8723394743074491 2 58.789391708033754 4.1323995498426882 2 64.61642695466 7.7968013083257768 2 79.185736493236973 9.1363034821195672 2 85.470245645972113 4.3312226660229136 2 85.026304468405627 7.7423577319724579 2 92.536264562767613 4.7767920640200474 2 99.0 6.5504250200937948 2 17.816068486990517 5.1018746052112682 2 29.46387364657059 7.7747133517597753 2 55.702275978098307 11.17947188218905 2 59.970981325407351 6.3878769742196786 2 62.817022094754492 2.8419558784221901 2 85.746515714591879 3.0359980899560499 2 87.671551234310996 1 2 90.342690455354216 12.450969405840416 2 98.372309021901458 7.9108998134576778 2 7.4821269901061385 4.5550481471815862 2 15.081469743020277 8.1930909869671904 2 31.078159046580144 6.2996063320384739 2 55.345855685813625 1 2 57.384923251729944 2.3325741546123711 2 67.477552796196704 12.671648853574359 2 83.568545662919604 8.8901189393326607 2 82.853565688679652 3.2121670061480105 2 88.702325916369901 5.6552270637016777 2 90.924936878395187 6.9537430326705421 2 99.0 2.4622675930450733 2 16.560927499247811 7.461792390517437 2 29.488833843952261 1.0907568130915486 2 57.494705447765675 4.0796811773420298 2 58.395841818707588 6.9602735762716783 2 65.74801069411771 4.952313686964338 2 87.02148736130016 3.4596769361593234 2 89.790004819570882 3.0735436391465063 2 90.126770228583041 10.536208882637608 2 96.40279317957328 3.9584323190060253 2 9.2462557505598877 7.0465023098560664 2 12.376514684645844 6.9519597582854393 2 32.666166904335093 5.4484842623569092 2 53.082063014353423 2.7435677186189618 2 60.056374059953342 4.7016925647242314 2 63.73411721736931 6.4902909365311094 2 81.386769738902274 11.058205507018636 2 85.891372782299968 6.5222486597375671 2 85.164031418277816 9.3930355841495263 2 93.712841504560743 3.2699286534389942 2 99.0 3.6661429978228317 2 16.635925436631666 2.8680874577501596 2 31.550413732307106 4.4050991834136513 2 55.082487456799292 7.0312907527466191 2 61.52775404233634 4.0611490225663873 2 63.745374161491668 3.629555481969208 2 87.052433430221242 2.2096238291277084 2 89.876833853315034 1 2 88.764877089537791 13.252601859490706 2 96.61125465399796 8.2397335813289114 2 6.4473939352268292 5.9194314817821434 2 13.890548769142743 9.4772033508091678 2 30.887581614707109 8.2645170498379645 2 55.568288183622741 2.4702126611437216 2 57.89115829948134 1 2 63.298665178544397 12.517796047481529 2 82.863985336202887 10.894216883615718 2 85.47753556290661 1.236500529611253 2 86.676493818625204 7.5632786675915558 2 90.282226169477241 8.6108120236633816 2 97.544840060099148 1.9912279032723224 2 15.716811607556071 9.7469680363079334 2 30.995022367449351 2.4487055944042129 2 57.003612738751016 7.5414190864001895 2 56.926660376945037 9.7503376938539681 2 67.176618359145692 4.5113248114751574 2 87.01994739825129 5.4427675384276402 2 89.862347106818234 4.3259199547401073 2 86.754888434676715 9.1904640965892597 2 96.994639518178445 5.2639207302139868 2 10.797851523406834 9.7437867215867904 2 8.7752784660079897 5.4382806169501707 2 34.256909299764793 6.4430247483482352 2 53.615536270945398 1 2 58.405571134622917 5.5509249079204199 2 64.954865070789694 9.2952077963780102 2 78.68573209313513 11.145451774863437 2 85.453910063249708 5.4602227224046231 2 83.733350269087225 7.0943592965922502 2 91.276800266643846 4.0869880379331116 2 97.982091766536414 5.2481183578141417 2 19.051708699982107 5.6670845089705972 2 29.423268083075502 6.3011149301181897 2 55.003248922301118 9.5487675941144818 2 61.141499566265246 7.4811979792785364 2 62.796527267476705 4.5450451305979973 2 84.605149331576513 2.6057704980187384 2 88.625405520793137 1 2 90.527868232534729 14.26439551724614 2 99.0 9.0851979275998485 2 6.370284877916629 3.7504083521889431 2 13.784707766528109 7.2420106959289496 2 30.142401076326333 4.8216076517793685 2 56.552155625876736 1 2 59.050232313795576 1 2 67.708972953410651 11.011741076827192 2 81.982438479261148 9.2050572717794719 2 84.030615123317034 3.9440074215159853 2 89.688240237616128 6.3361366097429599 2 91.749832622561144 5.6965022584838785 2 96.945296701994167 2.7320846964587737 2 17.614647580133319 6.6225731382417514 2 30.710745817397129 1 2 56.269974370340435 4.828431258687564 2 59.639583673170726 8.0718669072332023 2 66.401716367806074 6.2817249599994636 2 88.310639249949134 2.8580727850308758 2 88.682327522132567 4.3597250205786793 2 88.92370355510883 9.4223375590918828 2 97.707522251780276 3.7325765348584219 2 10.805863197647668 7.8787812246601181 2 11.099080018689383 6.0452063389263939 2 32.667564293348342 7.066435457583049 2 54.09039807279116 3.563568450284341 2 61.252269109818357 5.5990828732300812 2 64.823528299592468 6.0823541337169003 2 80.285859093388268 10.100419785222357 2 87.852325851372683 6.6559843228349553 2 86.038402228875668 10.952944028055075 2 92.689941538326536 3.564773396786916 2 99.0 5.0079863057503298 2 </DataArray>
</Points>
<Cells>
<DataArray Name="connectivity" format="ascii" type="Int32">0</DataArray>
<DataArray Name="offsets" format="ascii" type="Int32">0</DataArray>
<DataArray Name="types" format="ascii" type="UInt8">1</DataArray>
</Cells>
<PointData>
<DataArray Name="Points" NumberOfComponents="3" format="ascii" type="Float32">1.2 1.2 2 4.6747815951360021 5.2380804422071066 2 5.1714513586905193 3.0576368827102582 2 16.585796422952274 4.5969747849090599 2 30.101701954688533 3.3541749183419829 2 39.782739573455032 6.2956494178843476 2 41.756908032994801 4.5336334281306998 2 55.788118801079911 8.2553622764251493 2 62.684416045765019 5.6507694279228513 2 64.47252947169369 4.6397648749616005 2 78.086029645750202 5.0790425712500351 2 86.443125060849809 1 2 89.193394228881218 2.1177174741941638 2 87.368642533074549 12.141199418537434 2 97.261665568399096 6.9253776172680972 2 7.3732981125074248 7.4173163501788588 2 12.311461037659901 9.2147164703914122 2 32.487027319634365 8.7730268438786823 2 41.577672077760312 6.2422338029044235 2 56.280576566751776 3.2630010940480325 2 58.709792195837942 2.6068733491696876 2 64.803104585972434 12.432634434279722 2 84.369180737767465 11.122550396137898 2 84.319177961629762 1 2 88.059269705573172 8.2368348741100235 2 89.341233475243413 7.5799885302144361 2 99.0 1 2 17.449262974364128 9.8534572214566243 2 32.063550731248782 1 2 56.666295221865525 6.0584853043532583 2 58.250376786208847 8.8027460188512521 2 66.155552648591595 3.5853850649092109 2 87.347035230124888 4.4274238241263912 2 90.50656145407396 5.3048737591574016 2 87.837144874012864 10.486602734100021 2 96.151681420267863 5.8038528445830622 2 9.0697612266582137 9.7357533571601245 2 10.26671156592406 4.6609162103068984 2 34.192574929214771 8.2429975099025707 2 54.364819371957502 1.8723394743074491 2 58.789391708033754 4.1323995498426882 2 64.61642695466 7.7968013083257768 2 79.185736493236973 9.1363034821195672 2 85.470245645972113 4.3312226660229136 2 85.026304468405627 7.7423577319724579 2 92.536264562767613 4.7767920640200474 2 99.0 6.5504250200937948 2 17.816068486990517 5.1018746052112682 2 29.46387364657059 7.7747133517597753 2 55.702275978098307 11.17947188218905 2 59.970981325407351 6.3878769742196786 2 62.817022094754492 2.8419558784221901 2 85.746515714591879 3.0359980899560499 2 87.671551234310996 1 2 90.342690455354216 12.450969405840416 2 98.372309021901458 7.9108998134576778 2 7.4821269901061385 4.5550481471815862 2 15.081469743020277 8.1930909869671904 2 31.078159046580144 6.2996063320384739 2 55.345855685813625 1 2 57.384923251729944 2.3325741546123711 2 67.477552796196704 12.671648853574359 2 83.568545662919604 8.8901189393326607 2 82.853565688679652 3.2121670061480105 2 88.702325916369901 5.6552270637016777 2 90.924936878395187 6.9537430326705421 2 99.0 2.4622675930450733 2 16.560927499247811 7.461792390517437 2 29.488833843952261 1.0907568130915486 2 57.494705447765675 4.0796811773420298 2 58.395841818707588 6.9602735762716783 2 65.74801069411771 4.952313686964338 2 87.02148736130016 3.4596769361593234 2 89.790004819570882 3.0735436391465063 2 90.126770228583041 10.536208882637608 2 96.40279317957328 3.9584323190060253 2 9.2462557505598877 7.0465023098560664 2 12.376514684645844 6.9519597582854393 2 32.666166904335093 5.4484842623569092 2 53.082063014353423 2.7435677186189618 2 60.056374059953342 4.7016925647242314 2 63.73411721736931 6.4902909365311094 2 81.386769738902274 11.058205507018636 2 85.891372782299968 6.5222486597375671 2 85.164031418277816 9.3930355841495263 2 93.712841504560743 3.2699286534389942 2 99.0 3.6661429978228317 2 16.635925436631666 2.8680874577501596 2 31.550413732307106 4.4050991834136513 2 55.082487456799292 7.0312907527466191 2 61.52775404233634 4.0611490225663873 2 63.745374161491668 3.629555481969208 2 87.052433430221242 2.2096238291277084 2 89.876833853315034 1 2 88.764877089537791 13.252601859490706 2 96.61125465399796 8.2397335813289114 2 6.4473939352268292 5.9194314817821434 2 13.890548769142743 9.4772033508091678 2 30.887581614707109 8.2645170498379645 2 55.568288183622741 2.4702126611437216 2 57.89115829948134 1 2 63.298665178544397 12.517796047481529 2 82.863985336202887 10.894216883615718 2 85.47753556290661 1.236500529611253 2 86.676493818625204 7.5632786675915558 2 90.282226169477241 8.6108120236633816 2 97.544840060099148 1.9912279032723224 2 15.716811607556071 9.7469680363079334 2 30.995022367449351 2.4487055944042129 2 57.003612738751016 7.5414190864001895 2 56.926660376945037 9.7503376938539681 2 67.176618359145692 4.5113248114751574 2 87.01994739825129 5.4427675384276402 2 89.862347106818234 4.3259199547401073 2 86.754888434676715 9.1904640965892597 2 96.994639518178445 5.2639207302139868 2 10.797851523406834 9.7437867215867904 2 8.7752784660079897 5.4382806169501707 2 34.256909299764793 6.4430247483482352 2 53.615536270945398 1 2 58.405571134622917 5.5509249079204199 2 64.954865070789694 9.2952077963780102 2 78.68573209313513 11.145451774863437 2 85.453910063249708 5.4602227224046231 2 83.733350269087225 7.0943592965922502 2 91.276800266643846 4.0869880379331116 2 97.982091766536414 5.2481183578141417 2 19.051708699982107 5.6670845089705972 2 29.423268083075502 6.3011149301181897 2 55.003248922301118 9.5487675941144818 2 61.141499566265246 7.4811979792785364 2 62.796527267476705 4.5450451305979973 2 84.605149331576513 2.6057704980187384 2 88.625405520793137 1 2 90.527868232534729 14.26439551724614 2 99.0 9.0851979275998485 2 6.370284877916629 3.7504083521889431 2 13.784707766528109 7.2420106959289496 2 30.142401076326333 4.8216076517793685 2 56.552155625876736 1 2 59.050232313795576 1 2 67.708972953410651 11.011741076827192 2 81.982438479261148 9.2050572717794719 2 84.030615123317034 3.9440074215159853 2 89.688240237616128 6.3361366097429599 2 91.749832622561144 5.6965022584838785 2 96.945296701994167 2.7320846964587737 2 17.614647580133319 6.6225731382417514 2 30.710745817397129 1 2 56.269974370340435 4.828431258687564 2 59.639583673170726 8.0718669072332023 2 66.401716367806074 6.2817249599994636 2 88.310639249949134 2.8580727850308758 2 88.682327522132567 4.3597250205786793 2 88.92370355510883 9.4223375590918828 2 97.707522251780276 3.7325765348584219 2 10.805863197647668 7.8787812246601181 2 11.099080018689383 6.0452063389263939 2 32.667564293348342 7.066435457583049 2 54.09039807279116 3.563568450284341 2 61.252269109818357 5.5990828732300812 2 64.823528299592468 6.0823541337169003 2 80.285859093388268 10.100419785222357 2 87.852325851372683 6.6559843228349553 2 86.038402228875668 10.952944028055075 2 92.689941538326536 3.564773396786916 2 99.0 5.0079863057503298 2 </DataArray>
<DataArray Name="forces" NumberOfComponents="3" format="ascii" type="Float32">-0.79498919382533384 -0.046744814608022753 0.0 -0.11497139761701106 0.074723285298464101 0.0 -0.25658463836523282 0.12090587119040935 0.0 -0.17654696886357973 0.29227779213353239 0.0 -0.14489131685148526 0.067853407317924885 0.0 0.011915356499715424 0.3015374231454398 0.0 -0.10917793276002577 0.28565816883534423 0.0 -0.018390898412685264 0.29849625652459416 0.0 0.095740910167104176 -0.0084002607135289023 0.0 -0.13566388212217412 0.30503740068122137 0.0 0.015811732782907928 0.11825554693247183 0.0 -0.084793133421541378 -0.83334745178496628 0.0 -0.20378216523923243 0.14277931886123518 0.0 -0.083844627968410107 0.27890503359349006 0.0 0.092761920559776043 -0.028268407202905382 0.0 0.04878984937658809 0.22850102539099457 0.0 -0.012279687863172017 -0.18789763346324184 0.0 0.083078080143878213 0.44646791444473077 0.0 -0.00079627131022852807 0.27827391026963166 0.0 0.089865006593610686 0.096251434974337247 0.0 0.020583100467186186 -0.10308352737263721 0.0 0.12929825704757131 0.34032795659117054 0.0 0.12505992219935325 0.17351861852221939 0.0 -0.15941721075664106 -1.0137894052617669 0.0 -0.026197204214716316 0.20170677070836462 0.0 -0.15358296737955265 0.11721970984055002 0.0 1.1207474921582163 -0.66218476681306226 0.0 0.050066219707825238 0.18651945320870533 0.0 0.22560215702777359 -0.64323749939059394 0.0 -0.0042759818270834138 0.16699000997905811 0.0 0.018244087760854233 0.18007027435197381 0.0 -0.12004886916023333 0.07283615390143211 0.0 -0.16634738726769238 0.087580907756024659 0.0 0.0015389213248387934 0.10112115848804704 0.0 0.067424600701895626 0.27416542916748771 0.0 -0.11194616390927775 0.16324567991695155 0.0 -0.28775254487329271 0.0026229815122582613 0.0 -0.15695576654741106 -0.070874335707822034 0.0 -0.078816831088072359 0.19276943634999544 0.0 -0.042175102427924945 0.29367467732661479 0.0 0.022804447718438731 0.017699702136954376 0.0 -0.11736595843413164 0.2041652888217784 0.0 0.021653543377203543 0.0022983280223989877 0.0 0.054037364700773194 -0.0051611207037251805 0.0 -0.051543253624710017 0.26798809077060221 0.0 0.033137873091933764 0.077551485735273595 0.0 0.618866767013451 0.24185989132439401 0.0 -0.090229549517172145 -0.012079291679540416 0.0 0.010420192698529784 0.13896159279655038 0.0 0.013092795369749125 0.3036605257146322 0.0 -0.18957854463356355 0.00032193102607558366 0.0 -0.20599302046472037 -0.020451596781296266 0.0 -0.050935446763015868 -0.19265096943314786 0.0 -0.093383816101747646 -0.66312881219649822 0.0 -0.18285324703930389 0.046000123398525605 0.0 0.051184720643029924 0.16086644470817091 0.0 -0.0030656290725559199 0.21327404459836641 0.0 0.035266945695761664 0.10333709893649468 0.0 0.093847496914976208 0.27083418349482968 0.0 -0.10082486517111522 -0.96547768753973506 0.0 -0.021054112552353677 0.16633106744702997 0.0 -0.042537268979369838 0.330370337197117 0.0 -0.057570036941996472 0.12843374387358586 0.0 0.016731007552085623 0.054343659310831877 0.0 -0.092026722817819817 0.086021301223305646 0.0 -0.068700909404411092 0.28939029695082419 0.0 0.6638101250946804 -0.11943888607039926 0.0 0.098001868329682384 0.51512803258145412 0.0 -0.12493098681666881 -0.47657751105536239 0.0 0.040731940980151149 0.068625016064495614 0.0 -0.053904433798069723 0.16477575608201597 0.0 0.078950804512655071 -0.059062237855190269 0.0 -0.13899990694035502 0.097914883147488835 0.0 0.071704461984913537 0.027137485647733467 0.0 -0.09447200522615401 0.24626140873071234 0.0 0.14655030243316114 0.166751587826373 0.0 -0.034441451706198556 0.18637067701574489 0.0 -0.041126049464406289 0.057931086844829199 0.0 0.099077860687097175 0.10255632914940188 0.0 -0.12280434539332269 -0.070293017337691777 0.0 -0.043419800843778389 0.036291740416270146 0.0 -0.030521960018625727 0.14085421538084381 0.0 -0.12225589118839264 0.46483060775364238 0.0 -0.15603739081040802 0.12131295034674024 0.0 -0.12615125452361722 0.22022908747698808 0.0 0.18989324779668637 0.067415106246980383 0.0 0.76064241604643246 -0.014902819573496928 0.0 -0.038786625994458368 0.15979549229429224 0.0 -0.043743913283716351 0.10208963536206242 0.0 0.21308094877612849 -0.032620762276506073 0.0 -0.17610698662007562 0.19580914499137431 0.0 0.038391677054502638 -0.091560605128374217 0.0 0.0012861758497887399 -0.029617080896772618 0.0 -0.050511435444697828 -0.95731262234267434 0.0 -0.033630605537416036 0.23530081028522673 0.0 0.24521503095604086 0.080497212613530961 0.0 -0.0099012923180805401 0.12410635594926751 0.0 0.089860735269738951 0.22253823243835785 0.0 0.15193329654481094 -0.057938569216357705 0.0 -0.09497349445995093 0.038477750196222182 0.0 -0.064646077449629136 -0.73404000274639558 0.0 -0.10090829698553322 0.38574170626949855 0.0 0.087731391965972377 -0.046928381545137107 0.0 -0.12626433773774356 -0.16129374410404484 0.0 -0.083381250264898676 0.27472640632947731 0.0 0.058141479470250584 0.19556967815122453 0.0 0.050773878683726563 0.2218760275084545 0.0 0.0095984042637316802 0.31469435807099821 0.0 -0.01554356503499954 -0.13141415556871838 0.0 0.015198030575962425 0.1952985440686206 0.0 -0.09073227932128386 0.23226456318679736 0.0 0.19184337566573959 -0.0035880212356899088 0.0 -0.070169179273412513 0.19577752450886926 0.0 -0.14979931725530249 0.11443256433312028 0.0 -0.072072046381088259 0.2170490489993111 0.0 -0.086972927428139266 0.0097698725566829903 0.0 -0.10926311645548015 0.2675726111184637 0.0 -0.015156317626126931 0.13535388479327654 0.0 -0.045047787959209634 0.13856043336858348 0.0 0.084699636041748211 -0.9959011671844018 0.0 -0.14604985843379731 0.057920567303080248 0.0 0.022829483849270193 0.1623931291684198 0.0 -0.00034194615669885797 0.15793191665132261 0.0 -0.19877853611468371 0.0013020787443963292 0.0 0.014197381634268091 -0.016332515394720179 0.0 -0.008223549786134432 0.13447071733552521 0.0 0.044399569322306154 0.31831358513365932 0.0 -0.077314313357063152 0.036056642206348188 0.0 0.051802586347477725 0.013881347714596315 0.0 -0.21069549910807386 0.30710906920797149 0.0 -0.1205703225892668 0.35423248775709026 0.0 0.0033928019363256151 0.050807236590395738 0.0 -0.047283796986349186 0.085414804129881783 0.0 -0.012386161322495651 -0.78947427808277293 0.0 0.017738762785965402 0.19092898687219537 0.0 0.65245474717374896 0.3019198438872166 0.0 0.015337524436970007 -0.043013297019716734 0.0 0.023667254574313762 -0.0064357210917288799 0.0 0.1592206992364987 0.12621358873769445 0.0 0.055448255705083715 -0.56857277263080164 0.0 -0.061971226838480158 -0.34117624873296842 0.0 0.16539673259345311 0.25580718953081577 0.0 -0.036887764789674191 0.31955594716320729 0.0 0.026211380673403062 0.23822838253417464 0.0 0.01218011648156514 0.0053730496427577684 0.0 -0.09292993858532006 0.16376726091851757 0.0 -0.43882786302053062 -0.099492959881925636 0.0 -0.066534556551282292 0.086173607345745695 0.0 0.013807467541744278 -0.58742646564906886 0.0 0.017427386476555673 0.20370033648277452 0.0 -0.012493672204169248 0.16430174347699805 0.0 0.034273319167280325 0.035661956531238569 0.0 -0.15255472256209868 0.062730630440075874 0.0 -0.14816769934340607 0.0038199313624469045 0.0 0.0081936243246358287 0.18289914667527904 0.0 0.25265075923200309 0.038865295601203845 0.0 0.032013161856998928 0.19760099185368535 0.0 -0.30634962949962274 0.17645638214158274 0.0 -0.10068604155960206 0.25812504048370838 0.0 -0.14382069637827344 0.22931942655754511 0.0 -0.012586778533438148 0.30088870779526744 0.0 0.055600474946125411 0.1829684307948565 0.0 -0.007227057531985201 -0.026395612503819436 0.0 -0.1037699966265056 0.13121819744076346 0.0 0.096844037877401909 0.12958005994252436 0.0 0.042169250341137776 0.071926427517241959 0.0 1.0569560454625193 0.11879797427223847 0.0 </DataArray>
<DataArray Name="radii" format="ascii" type="Float32">1.2 1.2 1 1 1 1.2 1 1 1 1 1 1 1 1 1 1 1 1 1 1 1 1 1 1 1 1 1 1 1 1 1 1 1 1 1 1 1 1 1 1 1 1 1 1 1 1 1 1 1 1 1 1 1 1 1 1 1 1 1 1 1 1 1 1 1 1 1 1 1 1 1 1 1 1 1 1 1 1 1 1 1 1 1 1 1 1 1 1 1 1 1 1 1 1 1 1 1 1 1 1 1 1 1 1 1 1 1 1 1 1 1 1 1 1 1 1 1 1 1 1 1 1 1 1 1 1 1 1 1 1 1 1 1 1 1 1 1 1 1 1 1 1 1 1 1 1 1 1 1 1 1 1 1 1 1 1 1 1 1 1 1 1 1 1 1 1 1 </DataArray>
</PointData>
<CellData/>
</Piece>
</UnstructuredGrid>
</VTKFile>
