<?xml version="1.0" ?>
<VTKFile byte_order="LittleEndian" type="UnstructuredGrid" version="0.1">
<UnstructuredGrid>
<Piece NumberOfCells="0" NumberOfPoints="16">
<Points>
<DataArray NumberOfComponents="3" format="ascii" type="Float32">12.708750141091409 5.8516060591284234 2 24.014142494903162 1.4 2 45.411238215409909 3.6196438511131648 2 75.01374149754264 1.4 2 11.020818957040882 3.7170072377945278 2 22.489974867150611 3.5065361094859493 2 42.721824960678596 3.730009615041447 2 77.969776422274833 5.8814256672342911 2 16.029555446769269 3.7700915718222094 2 26.400947664870564 1.4 2 44.28474804488971 5.8962504862486886 2 77.334039543099692 1.4 2 12.402377267645061 1.4 2 23.785144042667799 5.7583958501192383 2 44.462552504617896 1.4 2 76.212937079476362 3.7654913978394644 2 </DataArray>
</Points>
<Cells>
<DataArray Name="connectivity" format="ascii" type="Int32">0</DataArray>
<DataArray Name="offsets" format="ascii" type="Int32">0</DataArray>
<DataArray Name="types" format="ascii" type="UInt8">1</DataArray>
</Cells>
<PointData>
<DataArray Name="Points" NumberOfComponents="3" format="ascii" type="Float32">12.708750141091409 5.8516060591284234 2 24.014142494903162 1.4 2 45.411238215409909 3.6196438511131648 2 75.01374149754264 1.4 2 11.020818957040882 3.7170072377945278 2 22.489974867150611 3.5065361094859493 2 42.721824960678596 3.730009615041447 2 77.969776422274833 5.8814256672342911 2 16.029555446769269 3.7700915718222094 2 26.400947664870564 1.4 2 44.28474804488971 5.8962504862486886 2 77.334039543099692 1.4 2 12.402377267645061 1.4 2 23.785144042667799 5.7583958501192383 2 44.462552504617896 1.4 2 76.212937079476362 3.7654913978394644 2 </DataArray>
<DataArray Name="forces" NumberOfComponents="3" format="ascii" type="Float32">-0.051164710687241995 0.33029241452023839 0.0 -0.0044136900967371995 -0.51413995006573565 0.0 -0.042530403823362872 0.31398045475145231 0.0 -0.042476328973368949 -0.23894571006810611 0.0 -0.053656792250307672 0.31753740009650133 0.0 0.0039297962690911653 0.33165601195916417 0.0 -0.015026964849561369 0.32194262400640461 0.0 -0.041143238668357188 0.32475002824531884 0.0 0.0040328201707823946 0.29431589146344128 0.0 -0.015981058335748158 -0.37872843804572909 0.0 -0.041114786301729073 0.33943457730730286 0.0 -0.022591999115901679 -0.49788553500504096 0.0 -0.028014702090089272 -0.4272208271049186 0.0 -0.021635488704265959 0.38871594222823325 0.0 -0.0059414834104305481 -0.35452261794572049 0.0 -0.028892404374836422 0.30481467230943093 0.0 </DataArray>
<DataArray Name="radii" format="ascii" type="Float32">1.4 1.4 1.4 1.4 1.4 1.4 1.4 1.4 1.4 1.4 1.4 1.4 1.4 1.4 1.4 1.4 </DataArray>
</PointData>
<CellData/>
</Piece>
</UnstructuredGrid>
</VTKFile>
