<?xml version="1.0" ?>
<VTKFile byte_order="LittleEndian" type="UnstructuredGrid" version="0.1">
<UnstructuredGrid>
<Piece NumberOfCells="0" NumberOfPoints="87">
<Points>
<DataArray NumberOfComponents="3" format="ascii" type="Float32">1.2 1.2 2 5.3611778134933861 4.9985947543998757 2 5.8860863847540088 2.9676384247519563 2 16.540011769050054 3.8016999228841475 2 30.533201547859296 3.334127528356762 2 39.754760102552673 5.5966043774648684 2 41.846757607836217 4.0432282462572706 2 55.753280994321607 7.3877908259990548 2 62.418694710981953 4.8304348745217247 2 64.296814193153892 4.1102374203497503 2 78.07468912461303 4.8812327088138092 2 86.504908241896132 1.4 2 89.590151068956033 1.4 2 88.113781320405138 11.625890838502734 2 97.226077310559546 6.9962057208894546 2 7.4312255461679753 6.4336207238546566 2 12.593562941590651 8.6979151104036525 2 31.809212187501601 7.7872256943129958 2 41.519882095518433 5.7561206942887262 2 55.78620347752782 2.9210483944559362 2 58.845772305552103 2.4152801754125335 2 64.402201571285204 11.294642236179804 2 83.829237364515237 10.188152218084795 2 84.6459004659024 1.4 2 87.727903942651409 7.3414236172716993 2 89.706610866113721 7.1928633098050234 2 98.6 1.4 2 16.954700391279466 8.9133971048696701 2 31.691491759235454 1.4 2 56.977928733587767 5.8240593316798517 2 58.059833798378229 8.3368125621669513 2 66.516303796402852 3.3856716847911601 2 87.603603833476555 4.2184556283532713 2 90.530923411028667 4.827507418693294 2 87.972492943868616 9.3168194935050739 2 96.774594039283059 5.150210491670272 2 10.173077394818394 9.1528724532858874 2 10.344645446774503 4.7445541334079371 2 34.063901418922406 7.1253157365306041 2 54.289029774144346 1.4 2 58.814965094454216 4.3118592785472121 2 64.456635068932542 7.9200871909733888 2 79.315002761416252 8.9594696399828972 2 85.57448760770302 4.3408407006365533 2 85.0884574282274 6.9142599776898512 2 92.284779079036312 4.1279793109040082 2 98.6 5.3379100346333654 2 18.054644662874992 5.2984159210039845 2 29.438685065486425 6.9629215174885637 2 56.052882617605128 9.7586180122249395 2 60.767309455428105 6.2932639720691803 2 62.968378364689215 2.9867744891628081 2 85.35935911892301 2.8132319650978617 2 88.21504731821021 1.4 2 90.684855841965728 11.906541225437277 2 98.6 7.5797568212039499 2 7.6293150341202205 3.9995960925914478 2 14.650571439136302 7.8105119488834811 2 30.77667308030038 5.3140798914319056 2 56.316054641716129 1.4 2 57.962935096144577 1.4 2 67.368563793044487 11.306429972266184 2 83.377711363149075 7.8542873813489082 2 83.341452894396582 3.2245532682679463 2 88.836802326851185 5.3588307498026833 2 91.560751927439668 6.2419799861768013 2 98.037475272354598 2.5589419270966896 2 16.500323520579265 6.4335702218399247 2 29.801910991620034 1.4 2 57.088836766548141 3.8521481744991739 2 59.033112199984281 6.461333499100741 2 66.028984155103927 5.0233513140609825 2 87.605124388009514 2.9024647004871582 2 89.74438152081818 3.2944623392087276 2 89.984398811271078 9.4752504387095442 2 96.540834005515208 3.6099285555648102 2 9.8629091973580056 6.7928710994963692 2 12.325611304822887 6.3448738611328288 2 32.490408454103722 5.534387557328837 2 53.535010778467715 3.0044606115343573 2 60.516954692069902 4.2983239448568682 2 64.187809462609266 6.022706506997336 2 81.405569202838166 10.072707781146153 2 86.601599673238169 5.9804610571225751 2 85.831283466791064 8.9970553591049356 2 93.45356010630033 3.1587991783404106 2 98.6 3.7490893966797412 2 </DataArray>
</Points>
<Cells>
<DataArray Name="connectivity" format="ascii" type="Int32">0</DataArray>
<DataArray Name="offsets" format="ascii" type="Int32">0</DataArray>
<DataArray Name="types" format="ascii" type="UInt8">1</DataArray>
</Cells>
<PointData>
<DataArray Name="Points" NumberOfComponents="3" format="ascii" type="Float32">1.2 1.2 2 5.3611778134933861 4.9985947543998757 2 5.8860863847540088 2.9676384247519563 2 16.540011769050054 3.8016999228841475 2 30.533201547859296 3.334127528356762 2 39.754760102552673 5.5966043774648684 2 41.846757607836217 4.0432282462572706 2 55.753280994321607 7.3877908259990548 2 62.418694710981953 4.8304348745217247 2 64.296814193153892 4.1102374203497503 2 78.07468912461303 4.8812327088138092 2 86.504908241896132 1.4 2 89.590151068956033 1.4 2 88.113781320405138 11.625890838502734 2 97.226077310559546 6.9962057208894546 2 7.4312255461679753 6.4336207238546566 2 12.593562941590651 8.6979151104036525 2 31.809212187501601 7.7872256943129958 2 41.519882095518433 5.7561206942887262 2 55.78620347752782 2.9210483944559362 2 58.845772305552103 2.4152801754125335 2 64.402201571285204 11.294642236179804 2 83.829237364515237 10.188152218084795 2 84.6459004659024 1.4 2 87.727903942651409 7.3414236172716993 2 89.706610866113721 7.1928633098050234 2 98.6 1.4 2 16.954700391279466 8.9133971048696701 2 31.691491759235454 1.4 2 56.977928733587767 5.8240593316798517 2 58.059833798378229 8.3368125621669513 2 66.516303796402852 3.3856716847911601 2 87.603603833476555 4.2184556283532713 2 90.530923411028667 4.827507418693294 2 87.972492943868616 9.3168194935050739 2 96.774594039283059 5.150210491670272 2 10.173077394818394 9.1528724532858874 2 10.344645446774503 4.7445541334079371 2 34.063901418922406 7.1253157365306041 2 54.289029774144346 1.4 2 58.814965094454216 4.3118592785472121 2 64.456635068932542 7.9200871909733888 2 79.315002761416252 8.9594696399828972 2 85.57448760770302 4.3408407006365533 2 85.0884574282274 6.9142599776898512 2 92.284779079036312 4.1279793109040082 2 98.6 5.3379100346333654 2 18.054644662874992 5.2984159210039845 2 29.438685065486425 6.9629215174885637 2 56.052882617605128 9.7586180122249395 2 60.767309455428105 6.2932639720691803 2 62.968378364689215 2.9867744891628081 2 85.35935911892301 2.8132319650978617 2 88.21504731821021 1.4 2 90.684855841965728 11.906541225437277 2 98.6 7.5797568212039499 2 7.6293150341202205 3.9995960925914478 2 14.650571439136302 7.8105119488834811 2 30.77667308030038 5.3140798914319056 2 56.316054641716129 1.4 2 57.962935096144577 1.4 2 67.368563793044487 11.306429972266184 2 83.377711363149075 7.8542873813489082 2 83.341452894396582 3.2245532682679463 2 88.836802326851185 5.3588307498026833 2 91.560751927439668 6.2419799861768013 2 98.037475272354598 2.5589419270966896 2 16.500323520579265 6.4335702218399247 2 29.801910991620034 1.4 2 57.088836766548141 3.8521481744991739 2 59.033112199984281 6.461333499100741 2 66.028984155103927 5.0233513140609825 2 87.605124388009514 2.9024647004871582 2 89.74438152081818 3.2944623392087276 2 89.984398811271078 9.4752504387095442 2 96.540834005515208 3.6099285555648102 2 9.8629091973580056 6.7928710994963692 2 12.325611304822887 6.3448738611328288 2 32.490408454103722 5.534387557328837 2 53.535010778467715 3.0044606115343573 2 60.516954692069902 4.2983239448568682 2 64.187809462609266 6.022706506997336 2 81.405569202838166 10.072707781146153 2 86.601599673238169 5.9804610571225751 2 85.831283466791064 8.9970553591049356 2 93.45356010630033 3.1587991783404106 2 98.6 3.7490893966797412 2 </DataArray>
<DataArray Name="forces" NumberOfComponents="3" format="ascii" type="Float32">-0.52990397556742708 -6.2917795324854521e-17 0.0 -0.13633906447365107 0.17313651565868601 0.0 -0.24898231193226955 0.063304456555641875 0.0 0.035478405891230524 0.11821295747227725 0.0 0.061482690111304417 0.22917863687697315 0.0 0.028954251654856305 0.24133509419414678 0.0 -0.14533614939478298 0.19106467401352303 0.0 -0.13657135629035877 0.54992540137792822 0.0 -0.037649816388473978 0.34770398239232392 0.0 -0.012483870447016085 0.073417424201859927 0.0 0.015278653951186327 -0.11170012416495012 0.0 -0.084180646694375971 -1.5340530894594644 0.0 -0.03842115182535058 -1.0772663370134472 0.0 -0.18970693543051365 0.46600193993731814 0.0 -0.105099151110987 0.38030544215493822 0.0 -0.3105753825996036 0.36146671814713216 0.0 -0.13503104679546674 0.59885810883238844 0.0 0.067584679310310092 0.37831601141012522 0.0 -0.026526530991218197 0.17893768370098218 0.0 -0.070162446624649544 0.25831758925554382 0.0 -0.11225718032577423 0.1600788371973963 0.0 -0.14951485603081976 0.60039514804050198 0.0 0.054643503760900825 0.6799721589424581 0.0 -0.054698983885964392 -1.5543779045742192 0.0 -0.17547093244737241 0.35358813653787424 0.0 -0.09229893974276332 0.47146682485749369 0.0 1.6609214732082309 -1.8167750878386251 0.0 -0.091905404848286534 0.6236177480231333 0.0 0.081308487745549995 -1.1541596393386147 0.0 -0.2236459094667162 0.36367401265872201 0.0 -0.15937890212539418 0.51022082250195888 0.0 0.080552951873008594 0.20566581149001789 0.0 0.025522143424618671 0.27201278637345316 0.0 -0.057526005276691994 0.23764939996784618 0.0 -0.12370121249169619 0.39669021320983111 0.0 -0.055018042055767269 0.27704289497536505 0.0 -0.28117754683072038 0.48637466950008007 0.0 -0.12110571402297068 0.29233993239128375 0.0 0.16961946286256652 0.34188088408360712 0.0 -0.093724062791184171 -1.3402658942673287 0.0 0.016732028078161987 0.32284409128843522 0.0 -0.0076498514284056296 0.26381375049750122 0.0 -0.28195004007969882 0.55505109922587637 0.0 -0.044676591483716943 0.20639457873589295 0.0 -0.11284328216224229 0.36171502450726023 0.0 -0.027457321051040817 0.065963146779379644 0.0 1.4719751097422353 0.32454665364465696 0.0 0.019299316183394533 0.13091196416896178 0.0 0.018341215985768308 0.49287137027937167 0.0 -0.23053064634027193 0.60989824836949647 0.0 -0.20632056776787933 0.35421297936615243 0.0 -0.03838864379665282 0.19092000518321806 0.0 -0.12786330136530988 0.24663260876914916 0.0 -0.11944634719364111 -1.3818635298457356 0.0 -0.063974068275843649 0.64080662065163496 0.0 1.2904298422710758 0.33217095991203982 0.0 -0.21283109444033987 0.16169790140089529 0.0 -0.052393368040335071 0.33138044162392932 0.0 -0.019666329236410984 0.32296555285790851 0.0 -0.12816935770320995 -1.3881939709297277 0.0 -0.097708298511271385 -1.3743989840374613 0.0 0.18042083945531831 0.41950100541535562 0.0 -0.177208815531194 0.46339098159564507 0.0 -0.18484073955566893 0.27480151450672263 0.0 0.040861580540451969 0.32600477664256233 0.0 -0.16233201946223424 0.28656068248836708 0.0 0.28103908991717519 0.20230311377748422 0.0 0.11905332537609471 0.39581434397396792 0.0 0.03473731613823583 -1.2993886595701269 0.0 0.0013269234406068642 0.23382035921016142 0.0 -0.20734734494658441 0.3764638203977404 0.0 0.057354513345264646 0.17795209286023622 0.0 0.039929891340778623 0.23714155961648897 0.0 0.0020385034645921118 0.059114274009862078 0.0 -0.029081874893124637 0.55224417038426998 0.0 -0.019295511355295503 0.098000515829517632 0.0 -0.17025548988174463 0.36622127031668433 0.0 -0.02724121241485955 0.37491144303673363 0.0 0.059703156310432326 0.27305048518656994 0.0 -0.13275840702598068 0.20941968439503278 0.0 0.022194744681815523 0.24008382031784367 0.0 -0.013773880782018688 0.21926750481456714 0.0 0.017768301544133697 0.30221582354829346 0.0 -0.087275323687667661 0.2368633440231091 0.0 -0.15622485899873895 0.45426477986829666 0.0 0.036789447587849355 0.15765543412690824 0.0 1.7836841165483928 0.32759630275289425 0.0 </DataArray>
<DataArray Name="radii" format="ascii" type="Float32">1.2 1.2 1 1.4 1.4 1.2 1 1.4 1.4 1.4 1 1.4 1.4 1.4 1.4 1.4 1.4 1.4 1 1.4 1.4 1.4 1.4 1.4 1.4 1.4 1.4 1.4 1.4 1.4 1.4 1.4 1.4 1.4 1.4 1.4 1.4 1.4 1.4 1.4 1.4 1.4 1.4 1.4 1.4 1.4 1.4 1.4 1.4 1.4 1.4 1.4 1.4 1.4 1.4 1.4 1.4 1.4 1.4 1.4 1.4 1.4 1.4 1.4 1.4 1.4 1.4 1.4 1.4 1.4 1.4 1.4 1.4 1.4 1.4 1.4 1.4 1.4 1.4 1.4 1.4 1.4 1.4 1.4 1.4 1.4 1.4 </DataArray>
</PointData>
<CellData/>
</Piece>
</UnstructuredGrid>
</VTKFile>
