<?xml version="1.0" ?>
<VTKFile byte_order="LittleEndian" type="UnstructuredGrid" version="0.1">
<UnstructuredGrid>
<Piece NumberOfCells="0" NumberOfPoints="64">
<Points>
<DataArray NumberOfComponents="3" format="ascii" type="Float32">11.194334219793937 7.17860543394863 2 22.806540525555377 2.7990870656525995 2 44.442559587829251 4.7528095683216494 2 76.77044661696489 1.2 2 10.665324858095218 5.4561979699120773 2 22.125509955250777 3.9373085711844289 2 41.811445583111656 4.9300426110541782 2 77.439699592094499 7.4263563914410673 2 16.36362117042572 3.8857855433211745 2 26.820000018891591 1.2 2 42.86209528614242 7.9948166897129678 2 77.884962005676655 1.2 2 11.893302133508605 1.2 2 23.471031659078839 9.6141499393938901 2 44.874328672750025 1.2 2 75.720173894425258 6.0185995798429728 2 13.45855489611527 7.8236143138235477 2 25.182526312128086 2.1146543425690827 2 44.899501119790934 3.1309734070420379 2 73.649280591018268 1.2 2 9.4270897706017021 4.5453730535438854 2 24.218613920198798 4.458480389531605 2 43.229568483523707 4.28882762782938 2 79.312983206763747 8.8039065774248364 2 15.681210005354364 5.1925265917002816 2 27.900968650013279 1.2 2 46.318305926414375 8.3182996343377091 2 76.057749666805506 2.9134463875332037 2 10.690348933151734 3.3359358146843925 2 26.508845119706343 7.089523162223478 2 45.848418185265309 1.2 2 74.119474685195556 3.2985557482535874 2 11.878908676918964 9.1416908456512385 2 23.452260205552612 1.2 2 43.21604291299834 6.0159321134803232 2 74.855857148190537 2.5122367177599689 2 9.1156780320495852 6.3835010369211957 2 22.234418772178277 6.1752754073099041 2 41.49528152841247 6.761315892524741 2 77.165160287976875 9.4262199867754006 2 17.297083708614778 5.336377265498311 2 25.78813080948423 1.2 2 44.602909578073124 7.1490366943368215 2 77.16776988085941 2.5097623506902096 2 11.677475255318415 2.5252362860400219 2 22.79632222074553 7.7655205737394901 2 43.948332521622625 1.2 2 75.629450468908715 7.8480352114249952 2 15.439288347178213 8.8878508273051757 2 24.506090335772431 1.2 2 45.902003050991148 2.6383400472300851 2 72.685511819610014 1.2 2 7.9811192156724582 4.3236206182590644 2 23.833862675935055 2.8539716506785768 2 43.782922254637413 2.7363532336591438 2 80.783435460013422 7.2673313747469628 2 15.125402846222398 6.8618251724132513 2 28.261643202373808 2.6867502499581688 2 44.457463276261798 9.332546198922909 2 77.963998463147021 3.5197719265236582 2 11.659962520664852 4.4148044632232368 2 25.186124669838293 8.3673688021702084 2 46.875483453872256 1.2 2 75.699390066894182 4.2806720987705127 2 </DataArray>
</Points>
<Cells>
<DataArray Name="connectivity" format="ascii" type="Int32">0</DataArray>
<DataArray Name="offsets" format="ascii" type="Int32">0</DataArray>
<DataArray Name="types" format="ascii" type="UInt8">1</DataArray>
</Cells>
<PointData>
<DataArray Name="Points" NumberOfComponents="3" format="ascii" type="Float32">11.194334219793937 7.17860543394863 2 22.806540525555377 2.7990870656525995 2 44.442559587829251 4.7528095683216494 2 76.77044661696489 1.2 2 10.665324858095218 5.4561979699120773 2 22.125509955250777 3.9373085711844289 2 41.811445583111656 4.9300426110541782 2 77.439699592094499 7.4263563914410673 2 16.36362117042572 3.8857855433211745 2 26.820000018891591 1.2 2 42.86209528614242 7.9948166897129678 2 77.884962005676655 1.2 2 11.893302133508605 1.2 2 23.471031659078839 9.6141499393938901 2 44.874328672750025 1.2 2 75.720173894425258 6.0185995798429728 2 13.45855489611527 7.8236143138235477 2 25.182526312128086 2.1146543425690827 2 44.899501119790934 3.1309734070420379 2 73.649280591018268 1.2 2 9.4270897706017021 4.5453730535438854 2 24.218613920198798 4.458480389531605 2 43.229568483523707 4.28882762782938 2 79.312983206763747 8.8039065774248364 2 15.681210005354364 5.1925265917002816 2 27.900968650013279 1.2 2 46.318305926414375 8.3182996343377091 2 76.057749666805506 2.9134463875332037 2 10.690348933151734 3.3359358146843925 2 26.508845119706343 7.089523162223478 2 45.848418185265309 1.2 2 74.119474685195556 3.2985557482535874 2 11.878908676918964 9.1416908456512385 2 23.452260205552612 1.2 2 43.21604291299834 6.0159321134803232 2 74.855857148190537 2.5122367177599689 2 9.1156780320495852 6.3835010369211957 2 22.234418772178277 6.1752754073099041 2 41.49528152841247 6.761315892524741 2 77.165160287976875 9.4262199867754006 2 17.297083708614778 5.336377265498311 2 25.78813080948423 1.2 2 44.602909578073124 7.1490366943368215 2 77.16776988085941 2.5097623506902096 2 11.677475255318415 2.5252362860400219 2 22.79632222074553 7.7655205737394901 2 43.948332521622625 1.2 2 75.629450468908715 7.8480352114249952 2 15.439288347178213 8.8878508273051757 2 24.506090335772431 1.2 2 45.902003050991148 2.6383400472300851 2 72.685511819610014 1.2 2 7.9811192156724582 4.3236206182590644 2 23.833862675935055 2.8539716506785768 2 43.782922254637413 2.7363532336591438 2 80.783435460013422 7.2673313747469628 2 15.125402846222398 6.8618251724132513 2 28.261643202373808 2.6867502499581688 2 44.457463276261798 9.332546198922909 2 77.963998463147021 3.5197719265236582 2 11.659962520664852 4.4148044632232368 2 25.186124669838293 8.3673688021702084 2 46.875483453872256 1.2 2 75.699390066894182 4.2806720987705127 2 </DataArray>
<DataArray Name="forces" NumberOfComponents="3" format="ascii" type="Float32">-0.034955645160817367 0.48585876414146478 0.0 -0.030661943955990055 0.447341625308386 0.0 -0.054155990107893737 0.47931204789928433 0.0 0.066508608263220248 -1.6418473672560387 0.0 -0.049052334592650682 0.45489775129292387 0.0 -0.023926467444281396 0.48145356238532511 0.0 -0.027229979387979043 0.40840070726644967 0.0 0.047960686203299852 0.51201592408696883 0.0 -0.059976807970914425 0.43104171185977685 0.0 -0.037838479659390578 -1.4630677816002933 0.0 0.0042385929262124256 0.52905643902773225 0.0 0.059469405681152221 -1.7294185986490771 0.0 -0.026275141037562011 -1.5124763204998857 0.0 -0.079554778342846993 0.57256205159687779 0.0 0.0030093716173191232 -1.4077048268054186 0.0 -0.022479282240388115 0.51075658768734633 0.0 -0.038086080960894275 0.5276028770034944 0.0 -0.0015809370722598692 0.43063008467503161 0.0 0.022444648384656624 0.39897557760441371 0.0 0.052761275010172248 -1.2414805657598025 0.0 -0.027144961013942065 0.49463059389334058 0.0 0.14804715644622574 0.51452878230970267 0.0 -0.0042592396085441853 0.47415071053034707 0.0 -0.03218538998424942 0.55643558643795588 0.0 0.068125847035402004 0.49615350935311364 0.0 -0.054124401272814454 -1.5763656229702279 0.0 0.030480475393367457 0.56962690552047113 0.0 -0.062800510232384199 0.43796145574028489 0.0 0.02708802366428642 0.36736316321217477 0.0 0.012059630310921554 0.49851599989613782 0.0 0.010228223081775401 -1.4484068171240649 0.0 -0.058747458266402208 0.35697199347414188 0.0 -0.077353739358343707 0.55407594270811311 0.0 0.0045021733554411747 -1.5243486482020718 0.0 0.0068053578741805731 0.54148112668719239 0.0 -0.020491569482940925 0.37263643234350913 0.0 -0.042671809991470057 0.5665397338853253 0.0 0.086934987506579908 0.47021184901691471 0.0 0.0071302948120885445 0.4796854392759442 0.0 -0.074816799154510033 0.56809975599777229 0.0 0.05315663852189205 0.50277701464150903 0.0 -0.037646717092950768 -1.5449116421446332 0.0 0.071485252539416178 0.52247563565100308 0.0 -0.032079407828887047 0.42581415364211839 0.0 0.0021469765022795197 0.38106859882658772 0.0 -0.054740022405055516 0.56190057868011889 0.0 0.004234478926538443 -1.3462793798624633 0.0 0.011622324831187802 0.55275548451300005 0.0 0.0029853186994533015 0.45657546075174577 0.0 -0.017241142263192094 -1.699342879155566 0.0 0.053790127324669978 0.349732402607491 0.0 0.022302084861219637 -1.1082362162690877 0.0 0.059776763797919463 0.41019892542139358 0.0 -0.065082930921772753 0.40978507543054382 0.0 0.029646229719010764 0.40345627388821881 0.0 0.021997201237180741 0.56387137374787999 0.0 -0.056250832612659986 0.42079735568934185 0.0 0.094345905750533962 0.40585698257432429 0.0 -0.018060460395739192 0.55301442670101819 0.0 -0.05359200413295323 0.40389505145054272 0.0 -0.059693759256829904 0.47343893380039093 0.0 0.013205179646013032 0.61854727029049184 0.0 0.015032898715970022 -1.4900134248381103 0.0 -0.036208101961851188 0.45856270004313143 0.0 </DataArray>
<DataArray Name="radii" format="ascii" type="Float32">1.2 1.2 1.2 1.2 1.2 1.2 1.2 1.2 1.2 1.2 1.2 1.2 1.2 1.2 1.2 1.2 1.2 1.2 1.2 1.2 1.2 1.2 1.2 1.2 1.2 1.2 1.2 1.2 1.2 1.2 1.2 1.2 1.2 1.2 1.2 1.2 1.2 1.2 1.2 1.2 1.2 1.2 1.2 1.2 1.2 1.2 1.2 1.2 1.2 1.2 1.2 1.2 1.2 1.2 1.2 1.2 1.2 1.2 1.2 1.2 1.2 1.2 1.2 1.2 </DataArray>
</PointData>
<CellData/>
</Piece>
</UnstructuredGrid>
</VTKFile>
