<?xml version="1.0" ?>
<VTKFile byte_order="LittleEndian" type="UnstructuredGrid" version="0.1">
<UnstructuredGrid>
<Piece NumberOfCells="0" NumberOfPoints="128">
<Points>
<DataArray NumberOfComponents="3" format="ascii" type="Float32">10.91919444490332 6.7709101034627945 2 22.817288731280222 1.6856536358858771 2 44.336821453480731 3.9628996422422333 2 76.288925617941985 1 2 10.418335621137906 4.7434760300660077 2 22.281104505890351 3.6693670362956383 2 42.058434425322432 4.343471560944077 2 77.206401750816042 7.1263884320220745 2 16.198687952580396 3.8983745073832461 2 27.150447737013664 1 2 42.514516170951872 7.4995130128997314 2 78.050243210562655 1.9896903526449221 2 11.779950349862968 1 2 22.877925161108433 8.561275709942711 2 44.837437726745449 1 2 75.993234183351291 5.5715596680837987 2 13.630816896975396 7.3644509782634762 2 25.404464637003425 1 2 44.736322696601853 2.944530359553359 2 73.77017557242074 1.7957086119975374 2 9.4267697004966724 4.5492032210798339 2 24.216933378890925 3.9260367942755261 2 42.69081044906288 3.6665421411987502 2 79.059923206654602 8.7351930260682398 2 15.71927179315206 5.2715124353763514 2 28.307432921812186 1 2 46.887545038789284 8.4436501110258337 2 76.381879343151226 2.8082062202203413 2 10.663458884216961 3.7734321893650145 2 26.185260528102607 6.6408832583673778 2 45.464101591107109 1 2 74.446383725421086 2.8576222804736 2 12.490007343943839 8.6791395315343216 2 23.197879308209075 1 2 42.76820923124798 5.2127238619933509 2 75.06441255486574 1 2 9.1156491640805815 5.8987304887128689 2 22.350715620813119 6.0085751156962885 2 41.759527839187719 6.6885903648822467 2 77.403659399438766 8.5870843783651054 2 16.688087129671363 4.9145173400455704 2 25.939047454555851 1 2 44.694871548559185 7.0345205325409861 2 76.644485933229959 1.8224059152152683 2 11.189880973783627 1 2 22.456321493661914 7.1467620049722509 2 44.631036886097931 2.0539949743672206 2 75.961820919659573 7.5167329844236477 2 14.867704730992344 8.1037788009473957 2 24.342636514342875 1 2 45.898521546367455 1.797625279802779 2 72.50253065353786 1 2 7.8166552661493345 4.5166281940331832 2 24.133561446594868 2.1044487750889291 2 43.650112415075562 2.0343869380288955 2 80.894515568935077 6.581739127800228 2 15.041308814210847 6.1078320277438483 2 28.23969536502133 2.3689657509049491 2 43.59073924980526 8.7536276548345988 2 78.145345869166619 3.8756348759696646 2 11.59900602638527 4.0837479179256908 2 25.578236423685173 7.683750192782929 2 47.099598094281241 1.9258391432029496 2 75.935079505578855 3.7513630586882907 2 11.23695575967721 5.4070654669661851 2 22.140631787137728 2.4615952943737551 2 44.792454542074381 5.0305437505650659 2 77.190609177312069 2.5293926177290311 2 10.107059244008019 5.951215786892833 2 21.442856381863539 4.1043784133516752 2 41.878757765671388 5.5434631727881847 2 78.104350342615916 6.5190339029392952 2 15.556974016147425 3.3838064575225282 2 26.619559360043361 2.7332263267523769 2 43.635891435169476 7.0268634555158807 2 77.603883975765143 1 2 11.162668227931293 2.1386079218687981 2 24.242106844523811 9.6116058030031013 2 43.832192252189962 2.9449785222615366 2 75.578592252240341 4.4215556587043725 2 12.2515250636394 7.0753051169916654 2 24.878616962465486 1 2 45.2702297543334 3.8204689609869509 2 73.402813908590289 2.5114268589295099 2 8.7428837040438285 3.977944272449673 2 23.153942538753178 4.28856938450373 2 43.396150523136342 4.1031460322954798 2 80.055500274032724 7.6546605796706046 2 15.199382396609316 4.4196474744209544 2 27.747391555507761 1 2 45.9785725565117 7.1624113597945556 2 75.295471103831872 3.0512728985189734 2 11.405061548663278 3.0070245082685787 2 27.168312802192158 6.430866875073594 2 46.157571403415055 1 2 74.061497489252332 3.5143534269550494 2 10.750330474155346 8.2928061449167956 2 23.788850768622943 1 2 43.909926843158601 5.1430760229575911 2 74.814366299142435 2.0944483987894165 2 7.7888295301953105 6.8499323944674355 2 21.386723533479362 5.8864969564613654 2 40.808001216328869 5.5217394087994434 2 75.666870203932405 9.1915313081297736 2 17.157879495355346 3.8324216557771678 2 26.538518993734314 1 2 43.343360257437354 6.0186746565808047 2 76.964216218045834 1 2 12.045465878892397 2.2932673528851346 2 23.688238701555029 6.6104892773393242 2 43.578761649897068 1 2 74.470863198194309 6.5277688631629296 2 16.03360772716211 9.4321043772236628 2 24.001995000021072 2.8279425335444426 2 46.807308061819505 2.6825016801040196 2 71.360322005057441 2.1933561544998077 2 7.671578687537945 3.6187924689359576 2 24.910648956100076 2.5501317868542381 2 42.992975172897289 1 2 80.144268949855672 5.8815635334011169 2 15.739179251433731 6.912951907603059 2 27.528558538277881 2.1373009624448192 2 45.232115818034735 8.6107482132039905 2 78.125928418986049 2.8160538783662221 2 12.480029014553091 3.2542779551028187 2 26.336256371739008 8.9934771753602725 2 45.534148668591989 2.5021423296695344 2 74.87170524526681 4.9888354110470345 2 </DataArray>
</Points>
<Cells>
<DataArray Name="connectivity" format="ascii" type="Int32">0</DataArray>
<DataArray Name="offsets" format="ascii" type="Int32">0</DataArray>
<DataArray Name="types" format="ascii" type="UInt8">1</DataArray>
</Cells>
<PointData>
<DataArray Name="Points" NumberOfComponents="3" format="ascii" type="Float32">10.91919444490332 6.7709101034627945 2 22.817288731280222 1.6856536358858771 2 44.336821453480731 3.9628996422422333 2 76.288925617941985 1 2 10.418335621137906 4.7434760300660077 2 22.281104505890351 3.6693670362956383 2 42.058434425322432 4.343471560944077 2 77.206401750816042 7.1263884320220745 2 16.198687952580396 3.8983745073832461 2 27.150447737013664 1 2 42.514516170951872 7.4995130128997314 2 78.050243210562655 1.9896903526449221 2 11.779950349862968 1 2 22.877925161108433 8.561275709942711 2 44.837437726745449 1 2 75.993234183351291 5.5715596680837987 2 13.630816896975396 7.3644509782634762 2 25.404464637003425 1 2 44.736322696601853 2.944530359553359 2 73.77017557242074 1.7957086119975374 2 9.4267697004966724 4.5492032210798339 2 24.216933378890925 3.9260367942755261 2 42.69081044906288 3.6665421411987502 2 79.059923206654602 8.7351930260682398 2 15.71927179315206 5.2715124353763514 2 28.307432921812186 1 2 46.887545038789284 8.4436501110258337 2 76.381879343151226 2.8082062202203413 2 10.663458884216961 3.7734321893650145 2 26.185260528102607 6.6408832583673778 2 45.464101591107109 1 2 74.446383725421086 2.8576222804736 2 12.490007343943839 8.6791395315343216 2 23.197879308209075 1 2 42.76820923124798 5.2127238619933509 2 75.06441255486574 1 2 9.1156491640805815 5.8987304887128689 2 22.350715620813119 6.0085751156962885 2 41.759527839187719 6.6885903648822467 2 77.403659399438766 8.5870843783651054 2 16.688087129671363 4.9145173400455704 2 25.939047454555851 1 2 44.694871548559185 7.0345205325409861 2 76.644485933229959 1.8224059152152683 2 11.189880973783627 1 2 22.456321493661914 7.1467620049722509 2 44.631036886097931 2.0539949743672206 2 75.961820919659573 7.5167329844236477 2 14.867704730992344 8.1037788009473957 2 24.342636514342875 1 2 45.898521546367455 1.797625279802779 2 72.50253065353786 1 2 7.8166552661493345 4.5166281940331832 2 24.133561446594868 2.1044487750889291 2 43.650112415075562 2.0343869380288955 2 80.894515568935077 6.581739127800228 2 15.041308814210847 6.1078320277438483 2 28.23969536502133 2.3689657509049491 2 43.59073924980526 8.7536276548345988 2 78.145345869166619 3.8756348759696646 2 11.59900602638527 4.0837479179256908 2 25.578236423685173 7.683750192782929 2 47.099598094281241 1.9258391432029496 2 75.935079505578855 3.7513630586882907 2 11.23695575967721 5.4070654669661851 2 22.140631787137728 2.4615952943737551 2 44.792454542074381 5.0305437505650659 2 77.190609177312069 2.5293926177290311 2 10.107059244008019 5.951215786892833 2 21.442856381863539 4.1043784133516752 2 41.878757765671388 5.5434631727881847 2 78.104350342615916 6.5190339029392952 2 15.556974016147425 3.3838064575225282 2 26.619559360043361 2.7332263267523769 2 43.635891435169476 7.0268634555158807 2 77.603883975765143 1 2 11.162668227931293 2.1386079218687981 2 24.242106844523811 9.6116058030031013 2 43.832192252189962 2.9449785222615366 2 75.578592252240341 4.4215556587043725 2 12.2515250636394 7.0753051169916654 2 24.878616962465486 1 2 45.2702297543334 3.8204689609869509 2 73.402813908590289 2.5114268589295099 2 8.7428837040438285 3.977944272449673 2 23.153942538753178 4.28856938450373 2 43.396150523136342 4.1031460322954798 2 80.055500274032724 7.6546605796706046 2 15.199382396609316 4.4196474744209544 2 27.747391555507761 1 2 45.9785725565117 7.1624113597945556 2 75.295471103831872 3.0512728985189734 2 11.405061548663278 3.0070245082685787 2 27.168312802192158 6.430866875073594 2 46.157571403415055 1 2 74.061497489252332 3.5143534269550494 2 10.750330474155346 8.2928061449167956 2 23.788850768622943 1 2 43.909926843158601 5.1430760229575911 2 74.814366299142435 2.0944483987894165 2 7.7888295301953105 6.8499323944674355 2 21.386723533479362 5.8864969564613654 2 40.808001216328869 5.5217394087994434 2 75.666870203932405 9.1915313081297736 2 17.157879495355346 3.8324216557771678 2 26.538518993734314 1 2 43.343360257437354 6.0186746565808047 2 76.964216218045834 1 2 12.045465878892397 2.2932673528851346 2 23.688238701555029 6.6104892773393242 2 43.578761649897068 1 2 74.470863198194309 6.5277688631629296 2 16.03360772716211 9.4321043772236628 2 24.001995000021072 2.8279425335444426 2 46.807308061819505 2.6825016801040196 2 71.360322005057441 2.1933561544998077 2 7.671578687537945 3.6187924689359576 2 24.910648956100076 2.5501317868542381 2 42.992975172897289 1 2 80.144268949855672 5.8815635334011169 2 15.739179251433731 6.912951907603059 2 27.528558538277881 2.1373009624448192 2 45.232115818034735 8.6107482132039905 2 78.125928418986049 2.8160538783662221 2 12.480029014553091 3.2542779551028187 2 26.336256371739008 8.9934771753602725 2 45.534148668591989 2.5021423296695344 2 74.87170524526681 4.9888354110470345 2 </DataArray>
<DataArray Name="forces" NumberOfComponents="3" format="ascii" type="Float32">-0.064396754953391505 0.65786753275485399 0.0 -0.080218334275585029 0.68351564603458392 0.0 -0.021723961568026459 0.41197469447700363 0.0 0.060318557473421741 -2.084454643742732 0.0 0.063721473431896464 0.47928486123897263 0.0 0.0068978433044140086 0.32500546759938598 0.0 0.10023861108465598 0.41741513903207128 0.0 -0.084840945477083873 0.52979960760299016 0.0 -0.07936101349087471 0.49263906429173754 0.0 0.04146607674263092 -1.830131650668694 0.0 -0.014657280059440503 0.52937969166263432 0.0 0.096286272520589855 0.36949436056577145 0.0 -0.0045279983024744536 -1.4282113917121764 0.0 -0.036170925703519846 0.52328070548763517 0.0 0.0012412173325702658 -1.9726293080809503 0.0 0.020029313029942708 0.43078626524360442 0.0 -0.045034762367622883 0.51965522093034555 0.0 0.061159286979071803 -1.460905969971428 0.0 0.019693530545146665 0.34158953395028013 0.0 0.051051819505066903 0.51641475801321346 0.0 0.044824223650764813 0.50516791215229206 0.0 -0.00078743051368818096 0.26827908682123608 0.0 -0.033195004632379545 0.40121323344253446 0.0 -0.022260089620165013 0.66577171272201752 0.0 -0.047248276776822043 0.54736554763090683 0.0 0.016199481835559248 -1.6061390013139865 0.0 -0.0023292082399059555 0.66084871529175315 0.0 0.019709560495124567 0.34273070808721701 0.0 -0.015908662164335285 0.44604228968266929 0.0 -0.066048792400746681 0.49533669113459133 0.0 0.0047637055866537013 -2.0494882030091564 0.0 0.018143931754894621 0.29257318989307485 0.0 0.10260577272416294 0.61900393338046633 0.0 -0.1471860282348042 -2.1434710781266091 0.0 -0.04910709492494858 0.47844583620918935 0.0 -0.0033705960927259415 -1.8008144115166091 0.0 -0.0079939052793371879 0.50085552672656264 0.0 -0.02358388251031901 0.53428142274443402 0.0 0.0014790224239078498 0.49055925654083976 0.0 0.055288529112289153 0.56320045249066719 0.0 -0.10397821959474429 0.49207747580505579 0.0 0.084877041658006136 -1.5799810578074249 0.0 0.0073444589868397192 0.61367735167435911 0.0 -0.069543095883107725 0.53076491500598966 0.0 -0.0088280775762654695 -1.5898296182964444 0.0 0.07347753987255512 0.5223956243059944 0.0 0.0038316213921183451 0.37247218315513475 0.0 0.04508346738402591 0.554821998535312 0.0 -0.091540458070300007 0.53738605116939475 0.0 -0.039270986623847925 -1.4992282525150078 0.0 0.10252304871881418 0.54644210007372873 0.0 0.047050202655391588 -1.7207356960835485 0.0 -0.0421685710852025 0.47643975282794515 0.0 0.087997384029189357 0.19754264609080785 0.0 -0.017251742482571185 0.30833563216126636 0.0 -0.066161601383946667 0.55758536397908909 0.0 0.034485584122048607 0.50194489414618149 0.0 -0.033189324037385726 0.27638123431657924 0.0 -0.1356226650472375 0.56675908960995236 0.0 0.028486272821486164 0.52096601846690294 0.0 -0.033000927365423149 0.40274900969135796 0.0 0.075436795535864271 0.50883438423487659 0.0 0.11810335953276252 0.39012164859128196 0.0 0.014454541237092222 0.34179943953865349 0.0 0.067451335299930304 0.55229393110210334 0.0 0.022944341609384966 0.40682662069468872 0.0 -0.029569436548107175 0.50504127541931221 0.0 0.069340037720459824 0.36688619893988783 0.0 0.070265426348078669 0.50136090449004889 0.0 -0.0560334963225705 0.44623575012549904 0.0 -0.045916099033019797 0.54709965838305208 0.0 0.084094445186272002 0.60243754083735102 0.0 -0.048669909959168312 0.45846463594204556 0.0 0.047990106207796195 0.44761152093310597 0.0 -0.021591996982196049 0.54297017781335544 0.0 -0.052843939478388946 -1.8371804921615436 0.0 -0.029099862283371053 0.41583536172123187 0.0 0.22842736103767911 0.36170461738678406 0.0 -0.028127028614127414 0.3628679725577002 0.0 0.021904978789961005 0.49160945086821028 0.0 -0.080045243276644362 0.62257494127046509 0.0 0.023304196919020158 -1.3884243758913584 0.0 -0.061244159664960662 0.55158150428967523 0.0 0.016427911652018574 0.44113169732025792 0.0 0.0021664636432306532 0.48217626799269742 0.0 -0.11823559275922745 0.5848710428370737 0.0 0.024465845102199152 0.41427314049029879 0.0 0.119926760236545 0.6509277626495007 0.0 -0.08701578903717741 0.45180388668020743 0.0 0.025317936749021108 -1.6475569414833195 0.0 -0.0037644138474144662 0.6104337086814009 0.0 0.0094339815931395489 0.54839003083014315 0.0 -0.031091744640808994 0.40203134832431431 0.0 -0.028283355505701303 0.60078820300022961 0.0 -0.099703571330210017 -2.2082252263673445 0.0 0.13937354996991425 0.48284541464741793 0.0 -0.045205655313109272 0.64211185595849252 0.0 -0.094677841891718184 -1.774790520489347 0.0 -0.08659745472959092 0.50775525554731182 0.0 0.056252248925673376 0.24597502611637478 0.0 -0.032539846560855568 0.69423692993029618 0.0 0.0062129200950031827 0.54680220268285606 0.0 0.056784055781539951 0.50493098291057104 0.0 -0.023443727510817691 0.54564704144682685 0.0 0.041214012374260423 0.51992555171208665 0.0 0.089217307934703671 -1.9501459035973243 0.0 0.0015754861780123974 0.52033871513421026 0.0 -0.024544777809646229 -2.1330551689507895 0.0 -0.023660565052122606 0.31879551213381085 0.0 0.056307153541210631 0.6542530401500648 0.0 0.003133127060964469 -1.7706598416445651 0.0 -0.0058730615939925485 0.54923060872506202 0.0 -0.036428950430670848 0.54604072081419663 0.0 0.043535346392673091 0.30840268635498869 0.0 -0.097013719275013899 0.37804418909711585 0.0 -0.051391584753876889 0.2631072704441737 0.0 0.055157919538812328 0.47108902014395265 0.0 0.036190146539835613 0.30492819228501666 0.0 0.0038623770454635498 -1.7244021293894485 0.0 -0.094128067353900766 0.5133519230962249 0.0 -0.016854145137293108 0.60128247985822714 0.0 -0.094262496231462226 0.41185595104411288 0.0 -0.04338493705453636 0.65149461178786749 0.0 -0.061532006917607733 0.41137446268435085 0.0 0.0095629656019496079 0.44155959484973417 0.0 0.0056332205284526649 0.58505357885968645 0.0 -0.01514013023474059 0.38247843834973216 0.0 -0.0049584715195623297 0.58307160965012117 0.0 </DataArray>
<DataArray Name="radii" format="ascii" type="Float32">1 1 1 1 1 1 1 1 1 1 1 1 1 1 1 1 1 1 1 1 1 1 1 1 1 1 1 1 1 1 1 1 1 1 1 1 1 1 1 1 1 1 1 1 1 1 1 1 1 1 1 1 1 1 1 1 1 1 1 1 1 1 1 1 1 1 1 1 1 1 1 1 1 1 1 1 1 1 1 1 1 1 1 1 1 1 1 1 1 1 1 1 1 1 1 1 1 1 1 1 1 1 1 1 1 1 1 1 1 1 1 1 1 1 1 1 1 1 1 1 1 1 1 1 1 1 1 1 </DataArray>
</PointData>
<CellData/>
</Piece>
</UnstructuredGrid>
</VTKFile>
