<?xml version="1.0" ?>
<VTKFile byte_order="LittleEndian" type="UnstructuredGrid" version="0.1">
<UnstructuredGrid>
<Piece NumberOfCells="0" NumberOfPoints="62">
<Points>
<DataArray NumberOfComponents="3" format="ascii" type="Float32">0 0 0 9.0804684166125522 1.4 2 19.160172280677713 4.4121718283759241 2 21.846285443878362 7.817559314795643 2 23.927666451551683 1.4 2 26.304829347694529 1.4 2 35.14761834076355 3.7204865130585842 2 37.53700539434481 3.851658524702076 2 46.173074393402246 2.0189813178275759 2 49.147952897074667 6.0845982828076224 2 54.037482744195501 6.8980597736189244 2 62.964162137807371 1.770274788296708 2 67.575106367431133 5.2036964433941453 2 70.022622014224297 5.1843450650182099 2 74.093043139752467 6.6232619312528209 2 76.643226551114751 2.9867963546643232 2 82.342103659571052 5.2519277734196175 2 93.37701363059098 5.9904100361763071 2 96.223343908509264 1.4 2 14.117580026028321 3.7498654422782898 2 21.36069487966239 5.6307967587978611 2 24.031109479640481 6.123186272606568 2 27.547975208567305 4.1915408161186249 2 33.567066302521368 1.4 2 44.798284530227647 4.3085055482027705 2 47.43273019096852 4.4672798500828526 2 52.809241232031106 4.9116095094499332 2 62.909722529875985 8.3359652806523972 2 68.542666262762268 3.0002047623503127 2 70.552990072356977 2.7468919963906404 2 72.345581663668682 4.6652622487574416 2 76.434321829071635 1 2 82.183006136239499 1.4 2 94.489479350030891 8.3279687861522103 2 95.893467901222195 6.0086163755172084 2 11.350010323193066 2.0344551518587051 2 25.222637595954602 3.7593245169589187 2 28.546894570457294 1.4 2 35.142207894032794 6.9804326777756751 2 43.851172137584463 1.4 2 61.143163374028966 1.4 2 67.005699307718587 7.4420423323724352 2 69.5949209374741 7.6544725951648731 2 76.476668648085806 5.6173056254777833 2 80.178975106180161 4.4309797222459535 2 94.639939065594689 3.6502675091388621 2 93.902263953642873 1.4 2 13.570770314961782 1.4 2 22.76959758040271 3.688285556778816 2 26.486989236188474 6.7036146575130084 2 28.907400992717378 7.0316071971137237 2 32.272940846897988 3.3116720172272549 2 44.439018621863084 6.9672704332661901 2 50.153766991260625 4.0167659324887088 2 55.194565685046534 3.8932073207420683 2 61.083410477389243 6.8621517809597261 2 67.427350820357219 1.4 2 71.845923473523172 1.4 2 74.594152186364198 3.6954144302345395 2 83.439567061052458 3.4576125742388268 2 91.720852285021053 8.1457335844715946 2 97.258574974726912 8.2002181870056816 2 </DataArray>
</Points>
<Cells>
<DataArray Name="connectivity" format="ascii" type="Int32">0</DataArray>
<DataArray Name="offsets" format="ascii" type="Int32">0</DataArray>
<DataArray Name="types" format="ascii" type="UInt8">1</DataArray>
</Cells>
<PointData>
<DataArray Name="Points" NumberOfComponents="3" format="ascii" type="Float32">0 0 0 9.0804684166125522 1.4 2 19.160172280677713 4.4121718283759241 2 21.846285443878362 7.817559314795643 2 23.927666451551683 1.4 2 26.304829347694529 1.4 2 35.14761834076355 3.7204865130585842 2 37.53700539434481 3.851658524702076 2 46.173074393402246 2.0189813178275759 2 49.147952897074667 6.0845982828076224 2 54.037482744195501 6.8980597736189244 2 62.964162137807371 1.770274788296708 2 67.575106367431133 5.2036964433941453 2 70.022622014224297 5.1843450650182099 2 74.093043139752467 6.6232619312528209 2 76.643226551114751 2.9867963546643232 2 82.342103659571052 5.2519277734196175 2 93.37701363059098 5.9904100361763071 2 96.223343908509264 1.4 2 14.117580026028321 3.7498654422782898 2 21.36069487966239 5.6307967587978611 2 24.031109479640481 6.123186272606568 2 27.547975208567305 4.1915408161186249 2 33.567066302521368 1.4 2 44.798284530227647 4.3085055482027705 2 47.43273019096852 4.4672798500828526 2 52.809241232031106 4.9116095094499332 2 62.909722529875985 8.3359652806523972 2 68.542666262762268 3.0002047623503127 2 70.552990072356977 2.7468919963906404 2 72.345581663668682 4.6652622487574416 2 76.434321829071635 1 2 82.183006136239499 1.4 2 94.489479350030891 8.3279687861522103 2 95.893467901222195 6.0086163755172084 2 11.350010323193066 2.0344551518587051 2 25.222637595954602 3.7593245169589187 2 28.546894570457294 1.4 2 35.142207894032794 6.9804326777756751 2 43.851172137584463 1.4 2 61.143163374028966 1.4 2 67.005699307718587 7.4420423323724352 2 69.5949209374741 7.6544725951648731 2 76.476668648085806 5.6173056254777833 2 80.178975106180161 4.4309797222459535 2 94.639939065594689 3.6502675091388621 2 93.902263953642873 1.4 2 13.570770314961782 1.4 2 22.76959758040271 3.688285556778816 2 26.486989236188474 6.7036146575130084 2 28.907400992717378 7.0316071971137237 2 32.272940846897988 3.3116720172272549 2 44.439018621863084 6.9672704332661901 2 50.153766991260625 4.0167659324887088 2 55.194565685046534 3.8932073207420683 2 61.083410477389243 6.8621517809597261 2 67.427350820357219 1.4 2 71.845923473523172 1.4 2 74.594152186364198 3.6954144302345395 2 83.439567061052458 3.4576125742388268 2 91.720852285021053 8.1457335844715946 2 97.258574974726912 8.2002181870056816 2 </DataArray>
<DataArray Name="forces" NumberOfComponents="3" format="ascii" type="Float32">0 0 0 -0.11312623040005632 -0.2426520796144061 0.0 0.11507848095348203 0.18088785116678813 0.0 0.033799366717825269 0.16568572394270317 0.0 -0.08851047603650225 -0.38236834553896309 0.0 -0.058084454025007948 -0.1879489589089342 0.0 -0.047542743942435128 -0.13661826642932923 0.0 0.054453199410905651 0.14482738290561289 0.0 0.072193593091566199 0.15146626121654322 0.0 -0.017827275697410626 0.11500010967583399 0.0 0.034579956759751132 0.057903976501868314 0.0 0.04802457333531307 -0.16080305146210991 0.0 -0.095544126463482731 0.22309755358582595 0.0 0.0176128318563714 0.23356988398049877 0.0 -0.083033834425883898 0.21428405733387176 0.0 0.11115008194846378 -0.069671098990900529 0.0 0.06051917267991086 0.30543198308289332 0.0 0.01561847647618983 0.24506507678907355 0.0 0.011699711439572255 -0.41039975739214557 0.0 0.028013557871087558 0.18257570224020328 0.0 -0.33234054456329526 0.17779359304516162 0.0 -0.24141007619232882 0.14552336278809758 0.0 -0.019021760875988902 0.10817053364736502 0.0 0.018072755440086297 -0.33565815944506083 0.0 -0.010720512320377254 0.086639855384195913 0.0 0.031253188793275349 0.18253367238490323 0.0 -0.26333830235229483 0.22738448304430325 0.0 0.0081669768533946946 0.28687773941471695 0.0 0.034137191920632137 0.2559624294164683 0.0 0.071363128822213628 0.14990503639717423 0.0 0.0910052415466856 0.042342758543427172 0.0 0.11510842018496115 -0.021131815912002517 0.0 -0.13989837415428424 -0.49900996467868952 0.0 0.047031176541382419 0.27588759599624391 0.0 0.036685066737676117 0.24897647144259999 0.0 -0.068995299178275973 0.044717526041572753 0.0 -0.035754257971186865 0.068469193464634273 0.0 0.060330095418379304 -0.13605882247724591 0.0 0.25121264852402131 0.21854785635588572 0.0 0.0050946304473455384 -0.38747589702168411 0.0 -0.11735915996715848 -0.46195689929945849 0.0 0.094427233292955937 0.32056461071055353 0.0 0.15494664714531797 0.31128450624810999 0.0 -0.10023488391782011 0.032001019585594856 0.0 0.0047840951105960206 0.17490247199113318 0.0 0.04303059219907579 0.14731164601829247 0.0 -0.020861301996506154 -0.62263689967347746 0.0 -0.016669013249948739 -0.44765408583729865 0.0 -0.078601560850160679 0.15313906106765929 0.0 -0.11462065354125545 0.089452733618917035 0.0 -0.026468551985688205 0.24243459474106521 0.0 0.070436717096288709 0.28529201547798388 0.0 -0.016156797773350898 0.11960464220667791 0.0 0.12358161150147344 0.20134307769778303 0.0 -0.19962806206787304 0.1318045314514705 0.0 -0.017352816141589844 0.15999029861793954 0.0 0.1609047648465507 -0.88203749553774879 0.0 0.043891645391501699 -0.79630508739524419 0.0 0.14130838116218797 0.062311853154079264 0.0 -0.16084583416578735 0.02506323096929057 0.0 -0.0070956749789790573 0.28245769573442608 0.0 0.065328176392147497 0.33367692378857905 0.0 </DataArray>
<DataArray Name="radii" format="ascii" type="Float32">0 1.4 1.2 1 1.4 1.4 1.4 1.2 1.4 1 1 1.4 1.4 1.4 1.4 1 1.4 1.4 1.4 1.4 1.4 1.4 1.4 1.4 1.4 1.4 1.4 1.4 1.4 1.4 1.4 1 1.4 1.4 1.4 1.4 1.4 1.4 1.4 1.4 1.4 1.4 1.4 1.4 1.4 1.4 1.4 1.4 1.4 1.4 1.4 1.4 1.4 1.4 1.4 1.4 1.4 1.4 1.4 1.4 1.4 1.4 </DataArray>
</PointData>
<CellData/>
</Piece>
</UnstructuredGrid>
</VTKFile>
