<?xml version="1.0" ?>
<VTKFile byte_order="LittleEndian" type="UnstructuredGrid" version="0.1">
<UnstructuredGrid>
<Piece NumberOfCells="0" NumberOfPoints="116">
<Points>
<DataArray NumberOfComponents="3" format="ascii" type="Float32">0 0 0 8.5591812921862829 1.4 2 19.963612003463837 4.8592754540869434 2 21.880935777526854 8.9108440721488371 2 23.245126869582968 3.05835713750057 2 26.361847496494494 2.7523258911754911 2 36.204401081632277 3.6972274257677658 2 38.015397602319595 4.8169729885340935 2 45.535614060174495 1.4 2 48.751403151748278 7.3571475917625309 2 53.547430441413262 8.1769673734410073 2 62.290804571475235 1.4 2 67.932371035053919 6.1394614084869445 2 70.508067276657073 5.7899732987755623 2 74.775535330950476 8.4231538027692991 2 76.929847173097357 2.5700335858059429 2 82.411449814552199 5.6898288527920311 2 93.645846786326288 7.3994155778069555 2 96.779571198741863 1.4 2 14.60070985311941 5.3420973544689332 2 20.98694171839481 6.9824982462989169 2 22.981889827644629 6.8555152073997219 2 26.873916231383447 4.6699841504474158 2 33.639086548082396 1.4 2 45.545037054293104 4.669149755078255 2 46.73182991503981 6.6373467050251618 2 52.267664910612595 5.6935806112596481 2 61.702348323430378 11.150573982960546 2 68.408632517171569 4.6394559831287436 2 71.545695167007452 3.2902979471556577 2 72.195715177315009 5.2868183493189242 2 76.5468964417108 1 2 81.332410587618241 1.4 2 94.379528615730138 11.587901259769007 2 95.432569024052512 6.8157912415799604 2 11.8733925412026 2.8437704491662061 2 24.859572182484005 3.8950700474597411 2 28.562485477515793 3.0283506001367226 2 37.465917222268132 7.9980090096751999 2 43.311176970161142 1.4 2 61.067381824881664 2.8681558519823782 2 67.742818850520734 8.7218917297335352 2 71.999149217596525 9.4586782188541232 2 76.524820633689743 5.57174208483874 2 80.168900261054418 4.942538222390322 2 94.799466953375358 4.9107373611153937 2 93.758446929109894 1.4 2 13.239796394190005 1.4 2 22.279208212436632 4.7116811498752496 2 26.130756884003535 8.9479137700257301 2 28.22486382595212 8.6638672013062727 2 32.439314184598516 3.3408827678262609 2 44.911177706748653 8.0759045043073314 2 50.108105599733769 5.8446952530686804 2 54.810095050650936 4.6467510686287223 2 60.378215209380812 8.7950590164402822 2 67.731887717835846 1.4 2 72.955065403783124 1.4 2 75.68681365095334 3.496605565156774 2 81.728431848106098 3.6497226038368837 2 92.324485015240995 10.288353973769137 2 98.6 9.6934023193027077 2 9.4605197961032346 3.0554512659123167 2 23.823323867399523 1.4 2 25.515419001631781 1.4 2 36.145017563275616 6.0784943515201135 2 46.707939738946571 3.0632846286331894 2 64.205962751605512 1.4 2 66.338419047394595 7.0873378691915505 2 69.632235384218362 7.3155649441368524 2 72.518083666488693 7.350900484683808 2 81.193631319315045 7.3931216724202597 2 93.408857439065372 5.5767446652885226 2 95.380268704995686 1.4 2 12.821766538179174 4.2151474874335104 2 18.955224649096682 7.644837514061714 2 24.075334172851672 8.6311046306220494 2 28.727743463765155 4.9566432581272366 2 34.640287127462884 2.5487576801639089 2 43.558915022848261 5.709999874521273 2 48.155723334658326 4.8965116741553825 2 51.225144096548071 8.0863472410788226 2 62.816914942687639 9.1616071898664799 2 69.969497492703738 3.7110065537743679 2 69.708095323839871 1.4 2 73.575524384327395 4.02706917758234 2 82.957288867241559 1.4 2 94.220446301902413 9.1774245007646122 2 96.24163378200133 8.8952297497567248 2 10.847357478094439 1.4 2 24.574428149399161 5.741433727639409 2 27.747104010302802 1.4 2 34.947213210415377 9.2078821085766052 2 43.863156065974081 3.279471995198199 2 60.284443794508249 1.4 2 65.672480385198412 9.4743450055541274 2 69.696076659177152 9.6801617655426746 2 77.086706107030693 7.9564687782256627 2 78.970623785281774 6.5664749276201571 2 95.098987897278874 3.1200813643992502 2 92.303954592185534 1.4 2 14.620152480249011 2.9838136682710141 2 20.889430628251386 2.7894594880281063 2 26.748924366482797 6.6330472671346978 2 30.379842176724754 9.5937985818052329 2 34.268180281730494 4.6847597704181574 2 42.282945183853016 7.9004460715029712 2 50.476869812862233 3.6627850935436914 2 54.102332818545655 6.2439489723878259 2 62.323807233157957 7.0545346118342707 2 68.178140408259523 2.7574480954607936 2 71.288471442490973 1.4 2 74.529680799668384 5.9525797263712521 2 84.032120226857629 5.1294676692806105 2 91.75671834329566 8.176440226597375 2 96.797310952199851 11.22197171916193 2 </DataArray>
</Points>
<Cells>
<DataArray Name="connectivity" format="ascii" type="Int32">0</DataArray>
<DataArray Name="offsets" format="ascii" type="Int32">0</DataArray>
<DataArray Name="types" format="ascii" type="UInt8">1</DataArray>
</Cells>
<PointData>
<DataArray Name="Points" NumberOfComponents="3" format="ascii" type="Float32">0 0 0 8.5591812921862829 1.4 2 19.963612003463837 4.8592754540869434 2 21.880935777526854 8.9108440721488371 2 23.245126869582968 3.05835713750057 2 26.361847496494494 2.7523258911754911 2 36.204401081632277 3.6972274257677658 2 38.015397602319595 4.8169729885340935 2 45.535614060174495 1.4 2 48.751403151748278 7.3571475917625309 2 53.547430441413262 8.1769673734410073 2 62.290804571475235 1.4 2 67.932371035053919 6.1394614084869445 2 70.508067276657073 5.7899732987755623 2 74.775535330950476 8.4231538027692991 2 76.929847173097357 2.5700335858059429 2 82.411449814552199 5.6898288527920311 2 93.645846786326288 7.3994155778069555 2 96.779571198741863 1.4 2 14.60070985311941 5.3420973544689332 2 20.98694171839481 6.9824982462989169 2 22.981889827644629 6.8555152073997219 2 26.873916231383447 4.6699841504474158 2 33.639086548082396 1.4 2 45.545037054293104 4.669149755078255 2 46.73182991503981 6.6373467050251618 2 52.267664910612595 5.6935806112596481 2 61.702348323430378 11.150573982960546 2 68.408632517171569 4.6394559831287436 2 71.545695167007452 3.2902979471556577 2 72.195715177315009 5.2868183493189242 2 76.5468964417108 1 2 81.332410587618241 1.4 2 94.379528615730138 11.587901259769007 2 95.432569024052512 6.8157912415799604 2 11.8733925412026 2.8437704491662061 2 24.859572182484005 3.8950700474597411 2 28.562485477515793 3.0283506001367226 2 37.465917222268132 7.9980090096751999 2 43.311176970161142 1.4 2 61.067381824881664 2.8681558519823782 2 67.742818850520734 8.7218917297335352 2 71.999149217596525 9.4586782188541232 2 76.524820633689743 5.57174208483874 2 80.168900261054418 4.942538222390322 2 94.799466953375358 4.9107373611153937 2 93.758446929109894 1.4 2 13.239796394190005 1.4 2 22.279208212436632 4.7116811498752496 2 26.130756884003535 8.9479137700257301 2 28.22486382595212 8.6638672013062727 2 32.439314184598516 3.3408827678262609 2 44.911177706748653 8.0759045043073314 2 50.108105599733769 5.8446952530686804 2 54.810095050650936 4.6467510686287223 2 60.378215209380812 8.7950590164402822 2 67.731887717835846 1.4 2 72.955065403783124 1.4 2 75.68681365095334 3.496605565156774 2 81.728431848106098 3.6497226038368837 2 92.324485015240995 10.288353973769137 2 98.6 9.6934023193027077 2 9.4605197961032346 3.0554512659123167 2 23.823323867399523 1.4 2 25.515419001631781 1.4 2 36.145017563275616 6.0784943515201135 2 46.707939738946571 3.0632846286331894 2 64.205962751605512 1.4 2 66.338419047394595 7.0873378691915505 2 69.632235384218362 7.3155649441368524 2 72.518083666488693 7.350900484683808 2 81.193631319315045 7.3931216724202597 2 93.408857439065372 5.5767446652885226 2 95.380268704995686 1.4 2 12.821766538179174 4.2151474874335104 2 18.955224649096682 7.644837514061714 2 24.075334172851672 8.6311046306220494 2 28.727743463765155 4.9566432581272366 2 34.640287127462884 2.5487576801639089 2 43.558915022848261 5.709999874521273 2 48.155723334658326 4.8965116741553825 2 51.225144096548071 8.0863472410788226 2 62.816914942687639 9.1616071898664799 2 69.969497492703738 3.7110065537743679 2 69.708095323839871 1.4 2 73.575524384327395 4.02706917758234 2 82.957288867241559 1.4 2 94.220446301902413 9.1774245007646122 2 96.24163378200133 8.8952297497567248 2 10.847357478094439 1.4 2 24.574428149399161 5.741433727639409 2 27.747104010302802 1.4 2 34.947213210415377 9.2078821085766052 2 43.863156065974081 3.279471995198199 2 60.284443794508249 1.4 2 65.672480385198412 9.4743450055541274 2 69.696076659177152 9.6801617655426746 2 77.086706107030693 7.9564687782256627 2 78.970623785281774 6.5664749276201571 2 95.098987897278874 3.1200813643992502 2 92.303954592185534 1.4 2 14.620152480249011 2.9838136682710141 2 20.889430628251386 2.7894594880281063 2 26.748924366482797 6.6330472671346978 2 30.379842176724754 9.5937985818052329 2 34.268180281730494 4.6847597704181574 2 42.282945183853016 7.9004460715029712 2 50.476869812862233 3.6627850935436914 2 54.102332818545655 6.2439489723878259 2 62.323807233157957 7.0545346118342707 2 68.178140408259523 2.7574480954607936 2 71.288471442490973 1.4 2 74.529680799668384 5.9525797263712521 2 84.032120226857629 5.1294676692806105 2 91.75671834329566 8.176440226597375 2 96.797310952199851 11.22197171916193 2 </DataArray>
<DataArray Name="forces" NumberOfComponents="3" format="ascii" type="Float32">0 0 0 -0.13130611924113272 -0.76142757354626167 0.0 0.05663727355634568 0.25929374185368004 0.0 -0.10108405426159457 0.3392423375770719 0.0 -0.14683812496803889 0.094099371870240894 0.0 -0.044872527043258503 0.21311659837568797 0.0 0.19507529007609414 0.1653712335152635 0.0 0.15772767545770447 0.15141995343565068 0.0 -0.11603369330538812 -0.80175204105426179 0.0 -0.009535406370268118 0.35853269067863869 0.0 -0.085458778913909766 0.39586088776819428 0.0 0.059105727123320739 -1.6809010328788099 0.0 0.16339718209412191 0.37788012100750401 0.0 0.008637020675967666 0.13123407790553254 0.0 -0.12279767516396378 0.53717269576249238 0.0 -0.027874772844262874 -0.13733809287803228 0.0 -0.23159348911187161 0.29510585171437043 0.0 0.0092346575329701475 0.31742709015754089 0.0 -0.047118222997569237 -1.6185795716824058 0.0 0.084282031664562496 0.25541823045151979 0.0 -0.099113129344692408 0.34107590135968913 0.0 -0.076553191058537973 0.28597586012135112 0.0 -0.13118451046295157 0.24562228706739908 0.0 0.14478222627826853 -1.4004198637759919 0.0 0.057907007996067072 0.35140332895434634 0.0 0.047424851062372264 0.47859986924949843 0.0 -0.13824340629424325 0.2078533735538976 0.0 -0.31305221750535084 0.54204110581848453 0.0 0.11451110444006744 0.27261301571521657 0.0 0.21300379247141291 0.12377797422034931 0.0 0.11311964139788694 0.23791584286736753 0.0 0.026564139556139788 -0.54669769126223189 0.0 -0.097305733742751685 -0.85725247497364776 0.0 -0.014343751640077174 0.64482499655742698 0.0 -0.05435591199863718 0.44536209547721806 0.0 -0.0527895933347328 0.18100232700517693 0.0 -0.25119952426495573 0.12729226310691022 0.0 0.0088385931806431173 0.25504478064099201 0.0 0.28144532731257327 0.38650322493237871 0.0 -0.18641668414456108 -1.1201009437837464 0.0 -0.082702049849126047 0.14145730217441232 0.0 0.073606389223623392 0.29997543882177152 0.0 0.33915847172793145 0.57062412665087436 0.0 0.099957287075504553 0.25986285786016494 0.0 -0.12666814073847787 0.23596992691313412 0.0 -0.044479091136532478 0.42446355776492595 0.0 -0.045440566370486823 -1.4977970259546749 0.0 -0.0057611916150139275 -1.0740546596681 0.0 0.060973274378808284 0.29727193825371168 0.0 -0.073948699581032104 0.59794063299677624 0.0 0.021997050254580097 0.54065935877660565 0.0 0.14749216879979066 0.18316218970690717 0.0 -0.17121846410992583 0.37965854752665507 0.0 -0.047454187367572898 0.36320938052980206 0.0 -0.14761324219566496 0.2723170229086882 0.0 -0.080939101484939172 0.44468310355267793 0.0 -0.040335953483880471 -1.5962285599828734 0.0 0.12494927017966906 -1.3310805063642415 0.0 0.23623813301172214 0.23131053047614564 0.0 -0.19787723933934853 0.10300874538382625 0.0 -0.014163602364712535 0.45665069395971214 0.0 0.61646145408055553 0.51202231764839945 0.0 -0.11135000304481962 0.2012564890949653 0.0 -0.10371795722850163 -1.0046017054406609 0.0 -0.049435630084591731 -1.2449518219275657 0.0 0.23233774590300305 0.28926741154129432 0.0 -0.077434680074416284 0.092833040424060265 0.0 0.019493691454012252 -1.4582230391129267 0.0 0.00052403111438836802 0.26305462885882425 0.0 0.41997877389544475 0.61563604481846734 0.0 -0.090328434263048069 0.32065275453628983 0.0 -0.24675723826160764 0.40924639082775138 0.0 -0.25277276976901131 0.22865707935789692 0.0 -0.05069886355548206 -1.4550838155751982 0.0 -0.054547389242553618 0.25068851692743122 0.0 -0.12451395495711919 0.31097003444877064 0.0 -0.15367283683112032 0.48056535616182611 0.0 -0.070128423957454972 0.36241352743145744 0.0 0.23894791355260953 0.09528889972029464 0.0 -0.074524851268667119 0.31703476359989957 0.0 -0.029455733359366104 0.17237247648262544 0.0 -0.018595662002019731 0.44873724817714727 0.0 0.054283111698183562 0.55297461506590162 0.0 0.16035911292834854 0.084781362005950656 0.0 4.2309715682087301e-05 -1.1000289910943615 0.0 0.2408001930958919 0.21050589339018244 0.0 -0.026652911169760624 -1.1442940064693177 0.0 0.097678201233343559 0.48637825429946069 0.0 0.18943878248111068 0.57211251315823519 0.0 -0.081398673460196247 -1.3385321192033444 0.0 0.17108793113330534 0.49243825323040746 0.0 0.0048197263312117489 -1.4907347289679513 0.0 0.20261660920597052 0.50907180438101363 0.0 -0.065141001043359847 0.23996242847575305 0.0 0.0045257572296465431 -1.6055835774900371 0.0 -0.013019570803161129 0.46979733400554313 0.0 0.090726991106751906 0.76215220740134504 0.0 -0.18014875432632177 0.38676235853656526 0.0 -0.1754596494359783 0.32100893151736526 0.0 -0.06901928085242659 0.27888877724791622 0.0 -0.0047387164536696336 -1.2801205661763815 0.0 0.012708999093099416 0.16411154999132938 0.0 -0.058894368259202134 0.13672193673249611 0.0 0.039545249152572515 0.50244540655933123 0.0 0.11097764063725285 0.58747267641034584 0.0 0.16862507012922623 0.2370634686251919 0.0 -0.26374315851876329 0.34225006651348833 0.0 -0.10657658486238772 0.13749227665532066 0.0 -0.12684198419484272 0.39163264370968243 0.0 -0.12241753522041998 0.43210134187206561 0.0 0.045853299368374012 0.19822859765448109 0.0 0.034620187145950831 -1.0080322075105248 0.0 0.11794671906252019 0.38980762113347805 0.0 -0.12944035307532054 0.35838021934123926 0.0 0.05910706773685559 0.36438032452757302 0.0 0.12105034234099764 0.62444417355033754 0.0 </DataArray>
<DataArray Name="radii" format="ascii" type="Float32">0 1.4 1.5999999999999999 1 1.4 1.4 1.4 1.2 1.4 1 1 1.4 1.4 1.4 1.4 1 1.4 1.4 1.4 1.4 1.4 1.4 1.4 1.4 1.4 1.4 1.4 1.4 1.4 1.4 1.4 1 1.4 1.4 1.4 1.4 1.4 1.4 1.4 1.4 1.4 1.4 1.4 1.4 1.4 1.4 1.4 1.4 1.4 1.4 1.4 1.4 1.4 1.4 1.4 1.4 1.4 1.4 1.4 1.4 1.4 1.4 1.4 1.4 1.4 1.4 1.4 1.4 1.4 1.4 1.4 1.4 1.4 1.4 1.4 1.4 1.4 1.4 1.4 1.4 1.4 1.4 1.4 1.4 1.4 1.4 1.4 1.4 1.4 1.4 1.4 1.4 1.4 1.4 1.4 1.4 1.4 1.4 1.4 1.4 1.4 1.4 1.4 1.4 1.4 1.4 1.4 1.4 1.4 1.4 1.4 1.4 1.4 1.4 1.4 1.4 </DataArray>
</PointData>
<CellData/>
</Piece>
</UnstructuredGrid>
</VTKFile>
