<?xml version="1.0" ?>
<VTKFile byte_order="LittleEndian" type="UnstructuredGrid" version="0.1">
<UnstructuredGrid>
<Piece NumberOfCells="0" NumberOfPoints="8">
<Points>
<DataArray NumberOfComponents="3" format="ascii" type="Float32">13.495537538684387 3.783785893766455 2 23.542023640596977 1.4 2 45.2487434760152 3.7846741941320068 2 76.211703654830828 1.4 2 12.189779710645345 1.4 2 22.305519230186121 3.8519771377889587 2 43.918809205598023 1.4 2 77.614415164368793 3.7987971432485836 2 </DataArray>
</Points>
<Cells>
<DataArray Name="connectivity" format="ascii" type="Int32">0</DataArray>
<DataArray Name="offsets" format="ascii" type="Int32">0</DataArray>
<DataArray Name="types" format="ascii" type="UInt8">1</DataArray>
</Cells>
<PointData>
<DataArray Name="Points" NumberOfComponents="3" format="ascii" type="Float32">13.495537538684387 3.783785893766455 2 23.542023640596977 1.4 2 45.2487434760152 3.7846741941320068 2 76.211703654830828 1.4 2 12.189779710645345 1.4 2 22.305519230186121 3.8519771377889587 2 43.918809205598023 1.4 2 77.614415164368793 3.7987971432485836 2 </DataArray>
<DataArray Name="forces" NumberOfComponents="3" format="ascii" type="Float32">0.013336603378232835 0.023169991181993938 0.0 -0.0032849055649367409 -0.079393683946102897 0.0 0.011069963522445516 0.034400512511565243 0.0 -0.041112401803014897 -0.042797251091645665 0.0 0.13559942278235548 -0.023169991181993938 0.0 -0.027074843855551652 0.054352419977882843 0.0 0.098708293828701388 -0.026895709921858888 0.0 0.0030593861084611644 0.079946080002305769 0.0 </DataArray>
<DataArray Name="radii" format="ascii" type="Float32">1.4 1.4 1.4 1.4 1.4 1.4 1.4 1.4 </DataArray>
</PointData>
<CellData/>
</Piece>
</UnstructuredGrid>
</VTKFile>
