<?xml version="1.0" ?>
<VTKFile byte_order="LittleEndian" type="UnstructuredGrid" version="0.1">
<UnstructuredGrid>
<Piece NumberOfCells="0" NumberOfPoints="19">
<Points>
<DataArray NumberOfComponents="3" format="ascii" type="Float32">0 0 0 12.052296215909443 1.5999999999999999 2 18.119185386260117 3.1415715895753693 2 22.68218818295087 3.7225654380840569 2 24.92925782057177 1.5999999999999999 2 27.980522431498784 1.5999999999999999 2 33.428062646639518 3.5489756220782915 2 36.367488319579223 2.8295892299585339 2 46.04111502819319 1.5999999999999999 2 48.538532012338692 3.5336755109047164 2 54.852307957597482 3.9208648044638248 2 62.845639340628146 1.5999999999999999 2 67.418096815636332 2.6724179677235473 2 70.298838827508433 1.8033208511654779 2 73.584667655832092 3.7346434634242525 2 75.886491050911303 1.5999999999999999 2 83.094007400965438 1.5999999999999999 2 93.447865985629576 3.4885904532590035 2 95.565655988958824 1.5999999999999999 2 </DataArray>
</Points>
<Cells>
<DataArray Name="connectivity" format="ascii" type="Int32">0</DataArray>
<DataArray Name="offsets" format="ascii" type="Int32">0</DataArray>
<DataArray Name="types" format="ascii" type="UInt8">1</DataArray>
</Cells>
<PointData>
<DataArray Name="Points" NumberOfComponents="3" format="ascii" type="Float32">0 0 0 12.052296215909443 1.5999999999999999 2 18.119185386260117 3.1415715895753693 2 22.68218818295087 3.7225654380840569 2 24.92925782057177 1.5999999999999999 2 27.980522431498784 1.5999999999999999 2 33.428062646639518 3.5489756220782915 2 36.367488319579223 2.8295892299585339 2 46.04111502819319 1.5999999999999999 2 48.538532012338692 3.5336755109047164 2 54.852307957597482 3.9208648044638248 2 62.845639340628146 1.5999999999999999 2 67.418096815636332 2.6724179677235473 2 70.298838827508433 1.8033208511654779 2 73.584667655832092 3.7346434634242525 2 75.886491050911303 1.5999999999999999 2 83.094007400965438 1.5999999999999999 2 93.447865985629576 3.4885904532590035 2 95.565655988958824 1.5999999999999999 2 </DataArray>
<DataArray Name="forces" NumberOfComponents="3" format="ascii" type="Float32">0 0 0 0.011335275956064955 -0.09087760511831447 0.0 0.022095223178630545 0.037271881840756811 0.0 -0.088804517802916455 0.083335852890040141 0.0 -0.079313074766102359 -0.083335852890040141 0.0 -0.0034653136212199342 0.0 0.0 0.086559248845375303 0.093963729627024803 0.0 0.0044897418791188673 0.020710571941829192 0.0 0.013956453586529423 -0.055725998558463594 0.0 0.016401995451319158 0.073686453579114242 0.0 -0.07190151571141265 0.080446133345173351 0.0 0.013875195858129546 -0.015554573195024367 0.0 0.025823369029931376 0.13443582176237787 0.0 0.055577397661249611 -0.01966030688625562 0.0 -0.028797209559688196 0.10948450296805563 0.0 -0.081838399251498092 -0.021788646000599488 0.0 -0.0080886165211196959 -0.003685630442239983 0.0 -0.063382929817028894 0.19559444935897002 0.0 -0.10045685878450711 -0.25210460475070512 0.0 </DataArray>
<DataArray Name="radii" format="ascii" type="Float32">0 1.5999999999999999 1.2 1.5999999999999999 1.5999999999999999 1.5999999999999999 1.5999999999999999 1.2 1.5999999999999999 1.5999999999999999 1.5999999999999999 1.5999999999999999 1.5999999999999999 1.5999999999999999 1.5999999999999999 1.5999999999999999 1.5999999999999999 1.5999999999999999 1.5999999999999999 </DataArray>
</PointData>
<CellData/>
</Piece>
</UnstructuredGrid>
</VTKFile>
