<?xml version="1.0" ?>
<VTKFile byte_order="LittleEndian" type="UnstructuredGrid" version="0.1">
<UnstructuredGrid>
<Piece NumberOfCells="0" NumberOfPoints="35">
<Points>
<DataArray NumberOfComponents="3" format="ascii" type="Float32">0 0 0 11.418848188319091 1.4153559368691011 2 17.974106026060774 3.5153266947924835 2 22.488488544449343 5.0629809978739866 2 24.997985380792564 1.2 2 27.397302664151905 1.2 2 33.83275109423159 4.5854785866881516 2 36.53861495996285 3.2414024031673656 2 45.739647983209473 1.2 2 48.601200924998217 4.6979185215013599 2 54.465731774044066 5.2857673930638462 2 62.704994791903452 1.2 2 67.344022258349042 3.8848043491537392 2 69.534133226132028 3.0323142666244505 2 74.259711965898632 4.1489539135672553 2 76.390543265099623 2.8608098710858063 2 81.966067272285855 3.4110713380467841 2 93.642170569453185 3.4583929897346413 2 94.476983529418945 1.2 2 13.819744528484806 1.2 2 23.130998688211807 2.9619153158149931 2 25.433195798905579 3.6209465110288668 2 28.490298751897434 3.3351244672220695 2 32.932328192665636 2.3616223869271828 2 45.414437683431373 3.8278635533491125 2 47.558445302236827 2.7655721030047831 2 55.518290023503944 3.3503054965120005 2 62.686280211362373 3.9230151410277649 2 67.604707810079489 1.2 2 71.002785880081873 1.2 2 71.988577636323711 3.3814936275742276 2 75.647047486046617 1 2 82.80639086970595 1.2 2 92.879762160062754 5.6655153026533336 2 96.101369516188029 3.4761776440691299 2 </DataArray>
</Points>
<Cells>
<DataArray Name="connectivity" format="ascii" type="Int32">0</DataArray>
<DataArray Name="offsets" format="ascii" type="Int32">0</DataArray>
<DataArray Name="types" format="ascii" type="UInt8">1</DataArray>
</Cells>
<PointData>
<DataArray Name="Points" NumberOfComponents="3" format="ascii" type="Float32">0 0 0 11.418848188319091 1.4153559368691011 2 17.974106026060774 3.5153266947924835 2 22.488488544449343 5.0629809978739866 2 24.997985380792564 1.2 2 27.397302664151905 1.2 2 33.83275109423159 4.5854785866881516 2 36.53861495996285 3.2414024031673656 2 45.739647983209473 1.2 2 48.601200924998217 4.6979185215013599 2 54.465731774044066 5.2857673930638462 2 62.704994791903452 1.2 2 67.344022258349042 3.8848043491537392 2 69.534133226132028 3.0323142666244505 2 74.259711965898632 4.1489539135672553 2 76.390543265099623 2.8608098710858063 2 81.966067272285855 3.4110713380467841 2 93.642170569453185 3.4583929897346413 2 94.476983529418945 1.2 2 13.819744528484806 1.2 2 23.130998688211807 2.9619153158149931 2 25.433195798905579 3.6209465110288668 2 28.490298751897434 3.3351244672220695 2 32.932328192665636 2.3616223869271828 2 45.414437683431373 3.8278635533491125 2 47.558445302236827 2.7655721030047831 2 55.518290023503944 3.3503054965120005 2 62.686280211362373 3.9230151410277649 2 67.604707810079489 1.2 2 71.002785880081873 1.2 2 71.988577636323711 3.3814936275742276 2 75.647047486046617 1 2 82.80639086970595 1.2 2 92.879762160062754 5.6655153026533336 2 96.101369516188029 3.4761776440691299 2 </DataArray>
<DataArray Name="forces" NumberOfComponents="3" format="ascii" type="Float32">0 0 0 0.0 0.0 0.0 -0.0015740384124823261 0.0038374967021061971 0.0 -0.0011350920378141005 0.0037536287677211056 0.0 -0.00045965883308118904 0.0 0.0 -0.00064548606447182026 -0.0021616329572907403 0.0 0.0002537667440916474 0.00062753769608426743 0.0 0.0014119281506876987 0.0019753242467877561 0.0 -0.00064634299691460398 -0.00055068058661818242 0.0 0.0035029442835611 0.0065796683248054615 0.0 -0.0015851835962360985 0.0029240409885955263 0.0 0.0 0.0 0.0 0.0083315330664340548 0.028812656175877888 0.0 0.020670755466258059 0.025063704347572564 0.0 0.0024707842805271941 0.00084267242649371387 0.0 -0.014199513934689323 0.020852488526708686 0.0 -0.0076210178283176557 0.018245424498729158 0.0 -0.049257747516113143 0.083309001109926353 0.0 -0.034776926450206039 -0.084420188483160741 0.0 0.00061005119436428965 -0.001916234604537844 0.0 0.0045694678692229738 0.0053515535283930049 0.0 0.0082167557864257119 0.0023694254728251537 0.0 0.00068037664172147208 0.0021149205481396888 0.0 -0.00052509967243900119 0.0010276343594464562 0.0 -0.035414312727338373 0.023100003336947401 0.0 -0.00682084922326575 0.0098503736376222145 0.0 0.0031146171407529801 9.4218814655528798e-05 0.0 -0.0066944634901756894 0.051624350832750375 0.0 0.00024698693992627709 -5.0421084173137553e-06 0.0 0.007121116691087467 -0.056727950152661813 0.0 0.00073658055526802267 0.0061833147039502111 0.0 0.01481985311464689 -0.0065772120688062288 0.0 -0.041659237690862098 -0.036263972825840693 0.0 0.0 0.0 0.0 0.016899234500671944 0.0024055326801735127 0.0 </DataArray>
<DataArray Name="radii" format="ascii" type="Float32">0 1.2 1.2 1 1.2 1.2 1.2 1.2 1.2 1 1 1.2 1.2 1.2 1.2 1 1.2 1.2 1.2 1.2 1.2 1.2 1.2 1.2 1.2 1.2 1.2 1.2 1.2 1.2 1.2 1 1.2 1.2 1.2 </DataArray>
</PointData>
<CellData/>
</Piece>
</UnstructuredGrid>
</VTKFile>
