<?xml version="1.0" ?>
<VTKFile byte_order="LittleEndian" type="UnstructuredGrid" version="0.1">
<UnstructuredGrid>
<Piece NumberOfCells="0" NumberOfPoints="64">
<Points>
<DataArray NumberOfComponents="3" format="ascii" type="Float32">11.208656208598855 6.923890886124398 2 22.761941353097352 2.3880612555697791 2 44.490093437879622 4.5482672081282489 2 76.467157221915514 1 2 10.770001024949448 5.2340959646311456 2 22.329862120751489 3.662840363925818 2 41.762157187671853 4.8649780207627984 2 77.182557086632286 7.0637314506796818 2 16.340575370060126 3.6879015410686531 2 26.886138587385613 1 2 42.925438487714729 7.5240478214137294 2 77.68384235744449 1 2 11.953765979469022 1 2 23.702051363241392 8.929900207180161 2 44.850044563560303 1 2 75.89619458421646 5.6107165776881969 2 13.640345318954642 7.3091437168604649 2 25.242186864737871 1.9998980795805008 2 44.783395990307802 2.9187106026330745 2 73.511300025980773 1.8418449556679908 2 9.4675267460588426 4.1814171950185353 2 23.904634887228017 4.0848766286644613 2 43.149359714358283 3.9294165014232467 2 79.438188390307673 8.1632506325535132 2 15.678897150065646 5.1127843955275285 2 27.998456554152334 1 2 46.202369617794012 7.6708947741287634 2 76.224883117771157 2.7063666463547857 2 10.55171433107016 3.3265616583375559 2 26.228732433796729 6.466182133247929 2 45.829655941397647 1 2 74.314782945728922 3.2029348437774305 2 12.254890205500752 8.4104756182177471 2 23.456198193121942 1 2 43.18393898741212 5.6329031579334714 2 75.091977219124558 2.3147535782506821 2 9.1441669233438141 5.7791906699399735 2 22.022778455703989 5.9339936056773546 2 41.538879859697396 6.4861891091548607 2 77.639002978716533 8.7763090565538064 2 17.305596407390194 4.9358068962714237 2 25.859205519632276 1 2 44.390288956669416 6.7551449984432317 2 77.338728255800817 2.2744610567102099 2 11.655112037823324 2.3983313030329714 2 22.940056753519091 7.3041204307745407 2 43.882539161299661 1 2 75.506712257843347 7.1905649265164122 2 15.502481896182124 8.4834722119924173 2 24.453879243297596 1 2 45.867904544575786 2.5558678761254066 2 72.715754602452108 1 2 7.8940061772047629 4.2569657881833924 2 23.908034621843775 2.6110177014332896 2 43.744636926394918 2.5335230287416115 2 80.734743435205999 6.7848731654821473 2 15.211107807599467 6.7360768783246758 2 28.032455680879032 2.4432448624748524 2 44.508273829148514 8.5767977306522791 2 77.927791135040508 3.4582609201742405 2 11.808836522060274 4.0600369773391343 2 25.014054748879317 7.6449730001613059 2 46.816695025647775 1 2 75.670608727621001 4.0316239703902088 2 </DataArray>
</Points>
<Cells>
<DataArray Name="connectivity" format="ascii" type="Int32">0</DataArray>
<DataArray Name="offsets" format="ascii" type="Int32">0</DataArray>
<DataArray Name="types" format="ascii" type="UInt8">1</DataArray>
</Cells>
<PointData>
<DataArray Name="Points" NumberOfComponents="3" format="ascii" type="Float32">11.208656208598855 6.923890886124398 2 22.761941353097352 2.3880612555697791 2 44.490093437879622 4.5482672081282489 2 76.467157221915514 1 2 10.770001024949448 5.2340959646311456 2 22.329862120751489 3.662840363925818 2 41.762157187671853 4.8649780207627984 2 77.182557086632286 7.0637314506796818 2 16.340575370060126 3.6879015410686531 2 26.886138587385613 1 2 42.925438487714729 7.5240478214137294 2 77.68384235744449 1 2 11.953765979469022 1 2 23.702051363241392 8.929900207180161 2 44.850044563560303 1 2 75.89619458421646 5.6107165776881969 2 13.640345318954642 7.3091437168604649 2 25.242186864737871 1.9998980795805008 2 44.783395990307802 2.9187106026330745 2 73.511300025980773 1.8418449556679908 2 9.4675267460588426 4.1814171950185353 2 23.904634887228017 4.0848766286644613 2 43.149359714358283 3.9294165014232467 2 79.438188390307673 8.1632506325535132 2 15.678897150065646 5.1127843955275285 2 27.998456554152334 1 2 46.202369617794012 7.6708947741287634 2 76.224883117771157 2.7063666463547857 2 10.55171433107016 3.3265616583375559 2 26.228732433796729 6.466182133247929 2 45.829655941397647 1 2 74.314782945728922 3.2029348437774305 2 12.254890205500752 8.4104756182177471 2 23.456198193121942 1 2 43.18393898741212 5.6329031579334714 2 75.091977219124558 2.3147535782506821 2 9.1441669233438141 5.7791906699399735 2 22.022778455703989 5.9339936056773546 2 41.538879859697396 6.4861891091548607 2 77.639002978716533 8.7763090565538064 2 17.305596407390194 4.9358068962714237 2 25.859205519632276 1 2 44.390288956669416 6.7551449984432317 2 77.338728255800817 2.2744610567102099 2 11.655112037823324 2.3983313030329714 2 22.940056753519091 7.3041204307745407 2 43.882539161299661 1 2 75.506712257843347 7.1905649265164122 2 15.502481896182124 8.4834722119924173 2 24.453879243297596 1 2 45.867904544575786 2.5558678761254066 2 72.715754602452108 1 2 7.8940061772047629 4.2569657881833924 2 23.908034621843775 2.6110177014332896 2 43.744636926394918 2.5335230287416115 2 80.734743435205999 6.7848731654821473 2 15.211107807599467 6.7360768783246758 2 28.032455680879032 2.4432448624748524 2 44.508273829148514 8.5767977306522791 2 77.927791135040508 3.4582609201742405 2 11.808836522060274 4.0600369773391343 2 25.014054748879317 7.6449730001613059 2 46.816695025647775 1 2 75.670608727621001 4.0316239703902088 2 </DataArray>
<DataArray Name="forces" NumberOfComponents="3" format="ascii" type="Float32">-0.012168561723648635 0.2046348762796153 0.0 -0.016893848493195307 0.12510175130492202 0.0 -0.050423633445342508 0.15013887863068526 0.0 0.027681124513407873 -0.72495808300268227 0.0 -0.029042669942400012 0.20218953095004197 0.0 0.034159981603112205 0.19168425754409579 0.0 -0.0097532799238651546 0.21818143970896148 0.0 0.061460613731166569 0.22198993844768644 0.0 0.014381660245323336 0.24567751220825265 0.0 0.04118937705333596 -0.64770537184437771 0.0 -0.026907729234814465 0.27242679866283892 0.0 0.015791903350092173 -0.92218998529594232 0.0 -0.0041576675834208154 -0.67838809303149838 0.0 -0.031614194111775698 0.30247885560309734 0.0 0.033286021105996155 -0.29210857543716634 0.0 -0.025164484794259784 0.28291008662185746 0.0 -0.12268608196315758 0.18278059115667586 0.0 0.037150328433814939 0.21806917354849115 0.0 0.029407560590572493 0.13894804922765588 0.0 0.015055808543331439 0.38006467599454452 0.0 0.022162398419645402 0.24721522476565677 0.0 4.4219799682332361e-05 0.1889271446924275 0.0 0.029898505394715072 0.17699892465360795 0.0 0.027706794616894639 0.29526890935061906 0.0 -0.013711979453832374 0.22580813697475666 0.0 0.039864571490140478 -0.78623860394535727 0.0 0.015815761635644854 0.1806971287529025 0.0 0.015113318420575339 0.14075768759387297 0.0 -0.0019470941409053255 0.19436499399589613 0.0 0.035711798007162066 0.2785299790096426 0.0 0.051007883989897973 -0.44892966480943114 0.0 -0.0094095980428690607 0.18529492072921747 0.0 -0.07599967183382586 0.29644793774856704 0.0 0.035239516518079453 -0.72294106726558249 0.0 -0.010744811414568511 0.28102296072909294 0.0 0.069975919335835399 0.1171985490970025 0.0 -0.069770187167613157 0.30113506068601509 0.0 0.014832577706424099 0.265077639478556 0.0 -0.039363113927973516 0.26583788114504936 0.0 -0.03940229888323319 0.25462872355550858 0.0 0.051617824052308775 0.34488429654293062 0.0 -0.026231953818399711 -0.8105795940503886 0.0 0.066844249457761171 0.31482099264382957 0.0 0.022750339017942989 0.15152606797615631 0.0 -0.066506669353992243 0.11221215866773165 0.0 0.02195028278621039 0.27209291176231459 0.0 0.019689733478335223 -0.47049975033369745 0.0 0.039314596444018413 0.38234441911515082 0.0 0.013382012056825932 0.22875645675832021 0.0 0.05584999463569032 -0.8632181132497061 0.0 0.016536720201295124 0.1057130314226444 0.0 0.12953666818232087 -1.0533507776094657 0.0 0.0355785415629917 0.18395972795529558 0.0 0.0029636607938856308 0.12299320386229451 0.0 0.040695923705065473 0.11036885687226415 0.0 0.067483646920730209 0.28846136319355081 0.0 -0.070207959383276231 0.24245657355598974 0.0 0.015291281892263149 0.23739686007209759 0.0 0.024318129184805078 0.26372879536114124 0.0 0.047513148446300835 0.18006897270332389 0.0 0.034242474885634602 0.19083866248474757 0.0 -0.0046762716793086467 0.2883265268312305 0.0 0.042258116186039779 -0.65327777756319716 0.0 -0.068526318150298873 0.19195318189274521 0.0 </DataArray>
<DataArray Name="radii" format="ascii" type="Float32">1 1 1 1 1 1 1 1 1 1 1 1 1 1 1 1 1 1 1 1 1 1 1 1 1 1 1 1 1 1 1 1 1 1 1 1 1 1 1 1 1 1 1 1 1 1 1 1 1 1 1 1 1 1 1 1 1 1 1 1 1 1 1 1 </DataArray>
</PointData>
<CellData/>
</Piece>
</UnstructuredGrid>
</VTKFile>
