<?xml version="1.0" ?>
<VTKFile byte_order="LittleEndian" type="UnstructuredGrid" version="0.1">
<UnstructuredGrid>
<Piece NumberOfCells="0" NumberOfPoints="225">
<Points>
<DataArray NumberOfComponents="3" format="ascii" type="Float32">0 0 0 7.6939275166185812 1.4 2 19.339609830399365 3.9995908746192819 2 21.656167972836727 10.420794952250949 2 22.918024162948079 2.8436298757567542 2 26.607355786386645 3.5158323551979986 2 37.062638024170717 4.1180076340959459 2 38.790708112552451 5.3104954526513213 2 45.688708251291743 1.4 2 48.690620210665699 8.9430871051408189 2 53.23759458832086 9.38721632103179 2 62.734116045150138 1.4 2 68.390511080962909 6.9207013879811026 2 70.679854590050681 6.3374159865247055 2 74.395154679156121 9.5385060889442084 2 76.904633101613072 2.3725516663763755 2 81.520047969276106 6.2536797458786966 2 93.546947994675691 8.5505600869675114 2 96.347256630872806 1.4 2 14.851314222957976 5.2022220322087689 2 20.598709652155026 9.1626671841705338 2 22.446601534923825 8.5746708963048412 2 26.668057822380948 5.0942936087253727 2 34.319530485744636 1.4 2 45.622142921458376 4.9311673939653238 2 46.653821469962821 6.7531276935520728 2 51.947928038095966 7.158783356558768 2 60.23365435636461 12.687123216595934 2 69.146271339155234 5.3889157871125013 2 72.801241539488942 3.5788411592784568 2 73.085665831767656 6.2852617893703888 2 76.359808917115799 1 2 81.195809642920011 2.3763324089805193 2 94.546327221990836 13.124088975847794 2 95.326254668441663 7.5168296549389702 2 12.525396485647896 3.2991874512810409 2 24.326604752954204 4.7667435038053938 2 28.239289370023265 3.7448527537785723 2 38.898837806880451 9.2576336095628164 2 43.167796698583956 1.8149652522454505 2 61.497543855661135 3.1759928837667029 2 67.994601647102314 9.9316920148641472 2 73.135958139558014 10.90740985182976 2 76.750044288363355 6.465554094143191 2 79.935196598491743 5.9845640873572963 2 94.927819932407473 5.8437824806040268 2 94.170109973017958 1.4 2 12.867551277997448 1.4 2 22.030596225463462 4.7541559377186049 2 25.46007469652746 10.827635116112868 2 29.041872252250649 9.8650399502887751 2 32.396410130598625 3.2522438678422909 2 44.624512914989801 9.9150501613184048 2 50.164101036979091 7.3968994098752177 2 54.334869188024307 5.819842844025839 2 60.435526121531488 10.0107077545781 2 68.321527017752899 1.4 2 73.558864113567424 1.4 2 75.789749182849121 3.1292366564068206 2 81.419287515704752 3.641443360107024 2 93.197810387418329 11.512774951273231 2 97.666955334488492 10.778261563589091 2 8.0620734331566677 3.2544900287688541 2 24.045513557127673 1.4 2 25.201207033820033 1.4 2 37.042048643044865 6.3121899384897109 2 46.485611362940652 3.6974044989006485 2 64.853878126656525 1.4 2 65.955987434122008 7.6673315474821795 2 71.0344362841156 8.9205898309545457 2 73.100154837941275 8.4958809923983569 2 80.944765528142071 8.3928171047781248 2 93.547230573213326 5.8454929918516898 2 95.621502430263106 2.190028981198807 2 12.078939405938739 4.9333245875243135 2 18.893170840644018 9.4763083258552907 2 23.488385096677963 10.712353153747108 2 28.916995246479161 5.0102302326620602 2 35.693661976474743 1.4 2 42.875912566171493 5.8875412278487032 2 47.486053428906558 5.0006464588877204 2 51.495318449378431 9.168285026731791 2 61.924777037354048 10.083335411004441 2 70.175925354367223 4.619712218874195 2 69.489141266511837 1.4 2 73.60136225595835 4.6580234990744378 2 82.093953666099793 1.4 2 94.541463770110312 10.537572388998228 2 96.421324694253954 9.8494176171922359 2 10.37564928039663 1.4 2 25.317922369880886 6.4602317026456335 2 27.938410027859948 1.4 2 34.476539728754886 11.0202473234559 2 43.053165973446788 3.9638694163948176 2 59.904567822560679 1.4 2 66.195534281818695 10.347009367056067 2 69.706889985957275 10.897803448017198 2 76.614788430249504 8.3212057225375968 2 78.37767505750935 6.4304216005331725 2 94.77536110714523 3.2424677919800042 2 92.605023928011704 2.2814786080212754 2 13.938619692762416 3.2821091286820159 2 21.475344927901325 2.9419639061484428 2 26.427310672566616 7.1588278553284139 2 31.205548363469209 10.825633435805209 2 34.434721425453191 5.0021714222759668 2 41.596114321794012 8.3000292430136131 2 50.250081106290025 3.0417582478902223 2 53.375203507811641 7.4848165800748889 2 62.219502062250385 7.3950863161241411 2 68.313079819762279 3.016810457478464 2 71.928561572506695 1.4 2 74.306323048774217 6.791300734201263 2 83.758746497263218 5.8845952966716837 2 91.399697440988447 9.98684348666003 2 96.633715683465354 13.218287085294596 2 20.227656789625335 6.7075734256428312 2 9.0752289565655779 1.4 2 23.380378178785147 3.9734359907291013 2 24.957368283015974 2.9168443803810056 2 35.987046958834974 3.3047156821701495 2 44.390290926410586 1.4 2 61.671662745296906 1.4 2 67.562002877415864 5.8715648793696129 2 69.858082754295594 7.2000858172597892 2 75.720460626789674 10.673360905143836 2 82.259734248416152 7.5302000901067796 2 93.922928479145043 7.1976052536819939 2 98.168314154444289 1.4 2 15.489294653174722 6.614124892846017 2 21.614380296318046 7.137320148536304 2 22.80184544352143 6.1161092058048361 2 27.780450005729236 5.7568005464935998 2 33.156103299065229 1.4 2 44.471669271154596 5.626831314042632 2 46.808490961845315 8.9815339164889334 2 51.242077979968201 5.6976448017585506 2 62.088162853909232 11.832391943685272 2 68.649001852552999 4.1857938371987897 2 71.570854020479246 4.2634614210944548 2 71.900734342098559 5.6976596221097928 2 80.559161595446909 1.4 2 92.700984076587929 13.903154283330556 2 95.067528465475803 8.9009913464472774 2 11.628475535457317 1.4 2 25.54343404838589 4.4484315646777564 2 28.927727659972209 2.5181227295486175 2 37.877591963864695 7.8282180662152214 2 41.996908715149736 1.4 2 59.909663349236823 3.3333815233182906 2 68.012643969947902 8.2143492140832421 2 71.531382482780231 10.622509780145522 2 75.483567143639078 5.7803360765420218 2 79.504647920691752 4.3547342510749258 2 94.163880772637256 4.6178252930174342 2 93.328223122963749 1.4 2 14.134675659496356 1.4 2 20.851690484086561 4.7824691293588888 2 27.16558693841861 9.1728209346719325 2 27.399099908810364 11.421105458014427 2 33.501949867771359 3.8304238785526161 2 45.067624545292809 7.5491808882141145 2 48.472920005883061 6.9741693151197506 2 54.764818914345518 4.4512623580722543 2 58.829537365722373 11.218484655682897 2 67.14995718890475 1.4 2 72.421581083754532 2.2800865251291276 2 76.535990447364711 4.5781269176929724 2 81.028752280269913 4.8675294019356281 2 91.696161449478311 11.935493879207765 2 98.6 11.53698477468078 2 9.5909611260334238 3.2578718229771582 2 22.83365149871447 1.4 2 26.434346408943327 1.4 2 35.848831245948119 7.9167582692149585 2 46.700215513441819 2.3440961750698146 2 63.748195954392394 1.4 2 66.632478698878984 8.8131941918245964 2 69.541819999024142 8.9530334879276037 2 71.905114588763354 7.7784836810225277 2 79.866019300232892 7.5865964519897799 2 92.554784410465231 7.0845839218171767 2 95.115674507934912 1.4 2 13.45314842837133 5.3469902240588256 2 18.924577656538897 7.6766990435673224 2 23.981255919816043 8.5045931078494341 2 27.916224302159886 7.4341867868805336 2 34.622054388828559 3.0050067429094263 2 43.295601918032254 7.8855441961689587 2 48.913701078490355 5.2972326625763397 2 50.042048928950692 10.326236758055536 2 63.791574450062484 10.854523432576881 2 70.810249005101994 3.216720658713045 2 69.6932332416158 2.7038701408593737 2 74.777361148327117 4.2399069421052396 2 83.102147258687921 1.4 2 92.933326140601338 9.7386443382185668 2 95.822170079992318 11.471795897565016 2 11.104730625197195 3.2748757369326329 2 23.976390380751983 6.6311622720045404 2 27.115680823042993 2.3911964629195617 2 36.655346873359989 10.051806410143241 2 44.508252184221313 3.3301886996966665 2 60.787408916908774 1.5440125417975157 2 65.802987892276391 11.823018613441196 2 70.59285995919943 12.880232864231878 2 77.423532540875186 10.370045717075021 2 78.179191509343696 8.0957659967576152 2 95.382816784648114 4.2821679359463829 2 92.05310950495037 1.4 2 15.253794823103359 3.3623298650855631 2 20.051257825788188 2.6862976218819528 2 25.448046167532045 8.7256367250631737 2 29.529161620989932 12.222504969958353 2 35.741106453246587 5.4872335455651893 2 40.762538791437379 10.138188340932354 2 50.139285715539479 4.6958083676887385 2 52.845303051926606 5.3466167471329884 2 62.740994450219858 8.7900556135853911 2 67.04405964482379 2.7411089293449966 2 70.738272528651152 1.4 2 75.209665266240265 7.9985306919025225 2 82.663109586303534 5.2346569788870045 2 91.787739871457049 8.2981169577913523 2 98.6 13.467088354290869 2 </DataArray>
</Points>
<Cells>
<DataArray Name="connectivity" format="ascii" type="Int32">0</DataArray>
<DataArray Name="offsets" format="ascii" type="Int32">0</DataArray>
<DataArray Name="types" format="ascii" type="UInt8">1</DataArray>
</Cells>
<PointData>
<DataArray Name="Points" NumberOfComponents="3" format="ascii" type="Float32">0 0 0 7.6939275166185812 1.4 2 19.339609830399365 3.9995908746192819 2 21.656167972836727 10.420794952250949 2 22.918024162948079 2.8436298757567542 2 26.607355786386645 3.5158323551979986 2 37.062638024170717 4.1180076340959459 2 38.790708112552451 5.3104954526513213 2 45.688708251291743 1.4 2 48.690620210665699 8.9430871051408189 2 53.23759458832086 9.38721632103179 2 62.734116045150138 1.4 2 68.390511080962909 6.9207013879811026 2 70.679854590050681 6.3374159865247055 2 74.395154679156121 9.5385060889442084 2 76.904633101613072 2.3725516663763755 2 81.520047969276106 6.2536797458786966 2 93.546947994675691 8.5505600869675114 2 96.347256630872806 1.4 2 14.851314222957976 5.2022220322087689 2 20.598709652155026 9.1626671841705338 2 22.446601534923825 8.5746708963048412 2 26.668057822380948 5.0942936087253727 2 34.319530485744636 1.4 2 45.622142921458376 4.9311673939653238 2 46.653821469962821 6.7531276935520728 2 51.947928038095966 7.158783356558768 2 60.23365435636461 12.687123216595934 2 69.146271339155234 5.3889157871125013 2 72.801241539488942 3.5788411592784568 2 73.085665831767656 6.2852617893703888 2 76.359808917115799 1 2 81.195809642920011 2.3763324089805193 2 94.546327221990836 13.124088975847794 2 95.326254668441663 7.5168296549389702 2 12.525396485647896 3.2991874512810409 2 24.326604752954204 4.7667435038053938 2 28.239289370023265 3.7448527537785723 2 38.898837806880451 9.2576336095628164 2 43.167796698583956 1.8149652522454505 2 61.497543855661135 3.1759928837667029 2 67.994601647102314 9.9316920148641472 2 73.135958139558014 10.90740985182976 2 76.750044288363355 6.465554094143191 2 79.935196598491743 5.9845640873572963 2 94.927819932407473 5.8437824806040268 2 94.170109973017958 1.4 2 12.867551277997448 1.4 2 22.030596225463462 4.7541559377186049 2 25.46007469652746 10.827635116112868 2 29.041872252250649 9.8650399502887751 2 32.396410130598625 3.2522438678422909 2 44.624512914989801 9.9150501613184048 2 50.164101036979091 7.3968994098752177 2 54.334869188024307 5.819842844025839 2 60.435526121531488 10.0107077545781 2 68.321527017752899 1.4 2 73.558864113567424 1.4 2 75.789749182849121 3.1292366564068206 2 81.419287515704752 3.641443360107024 2 93.197810387418329 11.512774951273231 2 97.666955334488492 10.778261563589091 2 8.0620734331566677 3.2544900287688541 2 24.045513557127673 1.4 2 25.201207033820033 1.4 2 37.042048643044865 6.3121899384897109 2 46.485611362940652 3.6974044989006485 2 64.853878126656525 1.4 2 65.955987434122008 7.6673315474821795 2 71.0344362841156 8.9205898309545457 2 73.100154837941275 8.4958809923983569 2 80.944765528142071 8.3928171047781248 2 93.547230573213326 5.8454929918516898 2 95.621502430263106 2.190028981198807 2 12.078939405938739 4.9333245875243135 2 18.893170840644018 9.4763083258552907 2 23.488385096677963 10.712353153747108 2 28.916995246479161 5.0102302326620602 2 35.693661976474743 1.4 2 42.875912566171493 5.8875412278487032 2 47.486053428906558 5.0006464588877204 2 51.495318449378431 9.168285026731791 2 61.924777037354048 10.083335411004441 2 70.175925354367223 4.619712218874195 2 69.489141266511837 1.4 2 73.60136225595835 4.6580234990744378 2 82.093953666099793 1.4 2 94.541463770110312 10.537572388998228 2 96.421324694253954 9.8494176171922359 2 10.37564928039663 1.4 2 25.317922369880886 6.4602317026456335 2 27.938410027859948 1.4 2 34.476539728754886 11.0202473234559 2 43.053165973446788 3.9638694163948176 2 59.904567822560679 1.4 2 66.195534281818695 10.347009367056067 2 69.706889985957275 10.897803448017198 2 76.614788430249504 8.3212057225375968 2 78.37767505750935 6.4304216005331725 2 94.77536110714523 3.2424677919800042 2 92.605023928011704 2.2814786080212754 2 13.938619692762416 3.2821091286820159 2 21.475344927901325 2.9419639061484428 2 26.427310672566616 7.1588278553284139 2 31.205548363469209 10.825633435805209 2 34.434721425453191 5.0021714222759668 2 41.596114321794012 8.3000292430136131 2 50.250081106290025 3.0417582478902223 2 53.375203507811641 7.4848165800748889 2 62.219502062250385 7.3950863161241411 2 68.313079819762279 3.016810457478464 2 71.928561572506695 1.4 2 74.306323048774217 6.791300734201263 2 83.758746497263218 5.8845952966716837 2 91.399697440988447 9.98684348666003 2 96.633715683465354 13.218287085294596 2 20.227656789625335 6.7075734256428312 2 9.0752289565655779 1.4 2 23.380378178785147 3.9734359907291013 2 24.957368283015974 2.9168443803810056 2 35.987046958834974 3.3047156821701495 2 44.390290926410586 1.4 2 61.671662745296906 1.4 2 67.562002877415864 5.8715648793696129 2 69.858082754295594 7.2000858172597892 2 75.720460626789674 10.673360905143836 2 82.259734248416152 7.5302000901067796 2 93.922928479145043 7.1976052536819939 2 98.168314154444289 1.4 2 15.489294653174722 6.614124892846017 2 21.614380296318046 7.137320148536304 2 22.80184544352143 6.1161092058048361 2 27.780450005729236 5.7568005464935998 2 33.156103299065229 1.4 2 44.471669271154596 5.626831314042632 2 46.808490961845315 8.9815339164889334 2 51.242077979968201 5.6976448017585506 2 62.088162853909232 11.832391943685272 2 68.649001852552999 4.1857938371987897 2 71.570854020479246 4.2634614210944548 2 71.900734342098559 5.6976596221097928 2 80.559161595446909 1.4 2 92.700984076587929 13.903154283330556 2 95.067528465475803 8.9009913464472774 2 11.628475535457317 1.4 2 25.54343404838589 4.4484315646777564 2 28.927727659972209 2.5181227295486175 2 37.877591963864695 7.8282180662152214 2 41.996908715149736 1.4 2 59.909663349236823 3.3333815233182906 2 68.012643969947902 8.2143492140832421 2 71.531382482780231 10.622509780145522 2 75.483567143639078 5.7803360765420218 2 79.504647920691752 4.3547342510749258 2 94.163880772637256 4.6178252930174342 2 93.328223122963749 1.4 2 14.134675659496356 1.4 2 20.851690484086561 4.7824691293588888 2 27.16558693841861 9.1728209346719325 2 27.399099908810364 11.421105458014427 2 33.501949867771359 3.8304238785526161 2 45.067624545292809 7.5491808882141145 2 48.472920005883061 6.9741693151197506 2 54.764818914345518 4.4512623580722543 2 58.829537365722373 11.218484655682897 2 67.14995718890475 1.4 2 72.421581083754532 2.2800865251291276 2 76.535990447364711 4.5781269176929724 2 81.028752280269913 4.8675294019356281 2 91.696161449478311 11.935493879207765 2 98.6 11.53698477468078 2 9.5909611260334238 3.2578718229771582 2 22.83365149871447 1.4 2 26.434346408943327 1.4 2 35.848831245948119 7.9167582692149585 2 46.700215513441819 2.3440961750698146 2 63.748195954392394 1.4 2 66.632478698878984 8.8131941918245964 2 69.541819999024142 8.9530334879276037 2 71.905114588763354 7.7784836810225277 2 79.866019300232892 7.5865964519897799 2 92.554784410465231 7.0845839218171767 2 95.115674507934912 1.4 2 13.45314842837133 5.3469902240588256 2 18.924577656538897 7.6766990435673224 2 23.981255919816043 8.5045931078494341 2 27.916224302159886 7.4341867868805336 2 34.622054388828559 3.0050067429094263 2 43.295601918032254 7.8855441961689587 2 48.913701078490355 5.2972326625763397 2 50.042048928950692 10.326236758055536 2 63.791574450062484 10.854523432576881 2 70.810249005101994 3.216720658713045 2 69.6932332416158 2.7038701408593737 2 74.777361148327117 4.2399069421052396 2 83.102147258687921 1.4 2 92.933326140601338 9.7386443382185668 2 95.822170079992318 11.471795897565016 2 11.104730625197195 3.2748757369326329 2 23.976390380751983 6.6311622720045404 2 27.115680823042993 2.3911964629195617 2 36.655346873359989 10.051806410143241 2 44.508252184221313 3.3301886996966665 2 60.787408916908774 1.5440125417975157 2 65.802987892276391 11.823018613441196 2 70.59285995919943 12.880232864231878 2 77.423532540875186 10.370045717075021 2 78.179191509343696 8.0957659967576152 2 95.382816784648114 4.2821679359463829 2 92.05310950495037 1.4 2 15.253794823103359 3.3623298650855631 2 20.051257825788188 2.6862976218819528 2 25.448046167532045 8.7256367250631737 2 29.529161620989932 12.222504969958353 2 35.741106453246587 5.4872335455651893 2 40.762538791437379 10.138188340932354 2 50.139285715539479 4.6958083676887385 2 52.845303051926606 5.3466167471329884 2 62.740994450219858 8.7900556135853911 2 67.04405964482379 2.7411089293449966 2 70.738272528651152 1.4 2 75.209665266240265 7.9985306919025225 2 82.663109586303534 5.2346569788870045 2 91.787739871457049 8.2981169577913523 2 98.6 13.467088354290869 2 </DataArray>
<DataArray Name="forces" NumberOfComponents="3" format="ascii" type="Float32">0 0 0 -0.41136965535363118 -1.0204535087494397 0.0 -0.36446480558450461 0.20889375116349163 0.0 -0.20681790861778232 0.85755587467828254 0.0 -0.0326130463587537 0.13901010633957189 0.0 -0.015803132276970056 0.38786794974221461 0.0 0.41900168527458853 0.046455891321617759 0.0 0.45760920290265877 0.24562963131294441 0.0 0.11014621023059601 -1.8189387921026514 0.0 -0.06252423900298254 0.66202195734487856 0.0 -0.29206321476044894 0.76042046696874199 0.0 0.098223781345698757 -2.247273285476417 0.0 -0.01492842060599564 0.26063499983424804 0.0 0.18219147225715349 0.50188056594224351 0.0 -0.0059404866350013519 0.44797845773753575 0.0 0.096950097087172185 -0.0015474639740106211 0.0 -0.1571742986073198 0.24770327983762319 0.0 -0.039745672904060836 0.59498717689871627 0.0 -0.24394888804832338 -2.708446438365069 0.0 -0.11870314970906612 0.30837774785091698 0.0 -0.0016613591928227311 0.8658144758306805 0.0 -0.07300226580898872 0.68266754778739069 0.0 0.030305395273929905 0.3633370319470195 0.0 0.2908950288347012 -1.6661354013359009 0.0 -0.21452510046218504 0.24953627135670264 0.0 0.11428667541454471 0.4698375933710221 0.0 -0.1500089621057073 0.43736291412487571 0.0 -0.16904646299772197 0.9909816816542365 0.0 0.24208538480663752 0.32371668262323233 0.0 0.27306087773903065 0.32918305475132115 0.0 0.25749113577767185 0.26750437927464787 0.0 -0.10401045312742752 -1.5644608629091197 0.0 -0.14762394077549057 0.26943362862549169 0.0 0.038450017427040184 0.98024480390311242 0.0 -0.12155084915036271 0.53376987327052083 0.0 -0.071041483736610109 0.19999231573258278 0.0 -0.1051343656464252 0.45098030323091509 0.0 -0.12464529053793405 0.33832490094737538 0.0 0.27571191823618058 0.53755338151866749 0.0 -0.21420443946034651 -0.5097883518165599 0.0 -0.19070397735416672 0.14355035793216531 0.0 0.12334544426904151 0.66255951684400849 0.0 0.31930463628710659 1.3057542066849606 0.0 0.033045470759220374 0.33274124269697775 0.0 -0.14459321181505386 0.29556875903897023 0.0 -0.092971019974220026 0.43842716016829053 0.0 -0.031430680883130169 -2.5672499842104153 0.0 0.078102039466603573 -1.5771343006237912 0.0 -0.16988446425070683 0.35670607891067796 0.0 -0.19267362355731102 0.86326517905725342 0.0 0.12581300332229009 0.75295271029411914 0.0 0.25025026252378357 0.24375414214028662 0.0 -0.25747687028717037 0.87986400545471155 0.0 -0.096762383170171953 0.51967050372278456 0.0 -0.3872304954595327 0.33242961154691597 0.0 -0.29137479803954891 0.90024744707987669 0.0 0.072336917565466008 -2.5009138668263349 0.0 0.30185440773924777 -2.4621899946221451 0.0 0.094901654741731289 0.12613886455003509 0.0 -0.20201519521538153 0.21923160250584073 0.0 0.20864917012812079 0.72996169468058525 0.0 0.0076793198786162531 0.78821794893238151 0.0 -0.36256848065210801 0.13747944365211748 0.0 -0.1632959536364369 -1.7788112808076511 0.0 0.018553896364370992 -1.8155232790001627 0.0 0.20488678407325867 0.18433241927544153 0.0 -0.025147873728882941 0.23714735325598466 0.0 0.11482509632859914 -2.3325728843438798 0.0 -0.05179406653221863 0.42247597167320328 0.0 0.18321611956702899 0.64850726292006855 0.0 0.059269740505273449 0.67067625717046453 0.0 -0.029238350618267933 0.45322527235037791 0.0 -0.15710644059375869 0.44931321511803934 0.0 0.20563669477460858 0.4250728960890206 0.0 -0.059864416675748267 0.32000725128964458 0.0 0.085235681752229231 0.67091018597838492 0.0 -0.22850146111236014 0.96419703374328158 0.0 0.11620187743833799 0.37698399715957281 0.0 0.50232800010688861 -1.5878105099808657 0.0 -0.13534323215171562 0.2543368816237962 0.0 -0.067380783196763799 0.030647773191602872 0.0 -0.31144571222245776 0.66579135531946265 0.0 -0.047976039082157085 0.2970166794835819 0.0 0.095292204765057231 0.35661048650390759 0.0 0.10853991523620321 -2.5728600403764048 0.0 0.2257128246268687 0.23902972062644257 0.0 -0.54888925619758822 -2.3031011532890382 0.0 0.01832702652089846 0.66711553280282798 0.0 0.019795516245858902 0.56649376932828388 0.0 -0.22032204371362091 -1.4662920847926799 0.0 0.069429512772690216 0.40600627921611288 0.0 0.11897656937796597 -2.8418997456669777 0.0 0.021040945108461218 1.0490243807960382 0.0 -0.3167399529508631 0.021064023639240925 0.0 -0.30057904990123796 -2.2503680318563051 0.0 0.042395543471285657 0.40685072616497187 0.0 0.21802141700975736 0.71833353565685298 0.0 -0.060284844253601477 0.60080546531880707 0.0 -0.14183187831408117 0.16923110857711654 0.0 -0.22480158549802137 0.31007679647647307 0.0 0.13518483855094843 0.33876871061154379 0.0 -0.093481011974556383 0.20208155305518327 0.0 -0.097863747752174657 0.25366166427311787 0.0 -0.10596615399287967 0.51979979121114028 0.0 0.28062011061772296 0.89444080378047008 0.0 0.19305641022830766 0.35442373053343412 0.0 -0.28343865039871452 0.3788784609719994 0.0 -0.28106566235343361 0.23131084164856275 0.0 -0.20473111956690263 0.64679377041562081 0.0 -0.08684285931474589 0.40321765446199453 0.0 0.011087932487675367 0.2662383911711938 0.0 0.18059913204199574 -2.7238483022280744 0.0 0.16839157373964497 0.45830876304408319 0.0 -0.12591482063226467 0.28783327248308632 0.0 -0.11966506896401752 0.68435143155817524 0.0 0.046650148432385907 1.0071156244713131 0.0 -0.2119828616483741 0.61831662430463974 0.0 -0.23964882271622773 -1.4792771561433988 0.0 -0.015598896474829382 0.12548636069751112 0.0 -0.19744207865112823 0.12462878880849707 0.0 0.34919626264059267 0.15921351634060366 0.0 -0.0022066619735345017 -1.4837683553925851 0.0 0.15279008700322216 -2.1943819292983249 0.0 0.10389093159453905 0.2444795115322585 0.0 0.11696779772132837 0.52603107539008165 0.0 -0.13870082717397514 1.2129344864037406 0.0 -0.15865510511077896 0.30807677868366656 0.0 0.033737608412442388 0.47904921156330094 0.0 0.38277976143567893 -2.5271330947990873 0.0 -0.0031245303487219545 0.39465621097799042 0.0 -0.1348708084440326 0.52226884368781101 0.0 -0.13076011764733697 0.42144025333295887 0.0 0.158810834974904 0.56858852426170403 0.0 0.1933445122337345 -1.7598403530845128 0.0 -0.11970540466502216 0.40502281596832945 0.0 -0.19038748888394316 0.92580825035679837 0.0 -0.065843056913982068 0.31306926015113634 0.0 -0.18595122701737588 0.53596896155482854 0.0 0.015432417479531946 0.24842955521654164 0.0 0.15741584237085082 0.16821049548055947 0.0 0.13393401172284819 0.41171176221539851 0.0 -0.49869817109180214 -2.4956432013938006 0.0 -0.064264352526172352 0.92599250947836498 0.0 -0.01427830300511642 0.63556485896880555 0.0 -0.097293940866389428 -1.4921657938573771 0.0 -0.031273628332817868 0.18329137976022153 0.0 0.051294951351854245 0.40065185134644521 0.0 0.22234906044694522 0.36677525835707131 0.0 -0.47022278787158223 -1.4803878845100491 0.0 0.17342355574898904 0.25460436812234621 0.0 0.16083983720028314 0.48372787036666348 0.0 0.28089628186880455 0.56947952524472933 0.0 0.15139501785001597 0.29729920356173811 0.0 -0.11197876946705909 0.11889287846277907 0.0 -0.1154548628091201 0.3947995206604159 0.0 -0.40112971281739573 -2.9684444421058145 0.0 0.21335957185920545 -1.6130143564793289 0.0 -0.16047187446662745 0.21455430386393931 0.0 0.019783329472214839 0.74378408268764917 0.0 -0.091078646686952924 0.95514887827326966 0.0 0.27066154298016798 0.12012666985431095 0.0 -0.039693070330410141 0.44408794712483224 0.0 -0.032959075274538036 0.45858472796332017 0.0 -0.21902887555355588 0.39552912315743116 0.0 -0.27991153546515152 0.87345836369867713 0.0 0.064891010155731177 -2.5594290580838264 0.0 0.37701270505491707 0.12018314953262305 0.0 -0.00048265349235143695 0.084347640475470886 0.0 -0.21744262994816987 0.32669016468281475 0.0 0.12442552220709097 0.7067489970105949 0.0 1.4591880100950319 0.76841034254358576 0.0 -0.22156753229685222 0.49796285012095842 0.0 -0.38963568407560134 -2.1868380925214526 0.0 0.14161216732740023 -2.5122297150666295 0.0 0.23806636493168237 0.52598168382708255 0.0 0.02710613683454377 0.17617555837989721 0.0 0.10654112600872555 -2.2204904659629019 0.0 0.095056732182994361 0.41380017557868159 0.0 0.1841198014656662 0.49347933577052872 0.0 0.26065756252319666 0.5035569689225835 0.0 -0.14874246317465301 0.37630990393924929 0.0 0.0054009235776567577 0.58260948498348375 0.0 -0.29122931693321535 -3.1913002723214285 0.0 -0.081764094163618933 0.33992324233404692 0.0 -0.11806150199023291 0.45342954813154007 0.0 -0.027589571953389402 0.57307405314618409 0.0 -0.076943591643826081 0.57110654161525098 0.0 0.41752020944559143 0.22733120174044996 0.0 -0.12831997625054015 0.59386353052062579 0.0 -0.19768101019300421 0.27275538486747597 0.0 -0.12996073129624874 1.2067962572243904 0.0 0.087994295026504715 1.1319243375075323 0.0 0.19831382287043706 0.33991830753743679 0.0 0.13197133982561216 0.22422427650212928 0.0 0.19786890756934017 0.15361827603531214 0.0 -0.3016023412129803 -1.9070420015808915 0.0 -0.14180934413079893 0.56204970761387174 0.0 0.090989375798855979 0.76773933284581275 0.0 -0.10142778896705829 0.30601424982115644 0.0 -0.03990766357779682 0.38951036262769828 0.0 -0.096006694920696134 0.2495469441638869 0.0 0.22322646017173939 0.79891325186497819 0.0 -0.21305796020656759 0.24619488083872285 0.0 0.0034048633949536056 -1.2292420761153438 0.0 0.15979193363165423 0.60995136800702632 0.0 0.17199494519367378 0.93634957021869025 0.0 -0.095588221913818133 0.64259309378020413 0.0 -0.020956810602916459 0.37760190161776003 0.0 -0.12346688490264612 0.39500840571404588 0.0 -0.28548218454325452 -3.1103066996821007 0.0 -0.087262985741129881 0.19973368318826329 0.0 0.039436060289334635 0.17773055312643948 0.0 -0.032664665446424018 0.77963815098916101 0.0 0.097263610108120069 0.97392168383838817 0.0 0.2645303509586584 0.17418205529985981 0.0 0.34227471389050057 1.0306532440120102 0.0 -0.041071176002690293 0.39857623130429776 0.0 -0.2592116876941617 0.26461415955348755 0.0 -0.13341477532763549 0.60936855763265241 0.0 -0.057647285258084213 0.19282229251022509 0.0 0.19749320275362714 -2.2876694233077517 0.0 0.08745004576176986 0.62229908062599637 0.0 -0.13182851479056046 0.28565082754836513 0.0 -0.12773442297212756 0.51126429346696156 0.0 0.81043371619608939 0.9773147699573842 0.0 </DataArray>
<DataArray Name="radii" format="ascii" type="Float32">0 1.4 1.5999999999999999 1 1.4 1.4 1.4 1.5999999999999999 1.4 1.4 1.4 1.4 1.4 1.4 1.4 1.4 1.4 1.4 1.4 1.4 1.4 1.4 1.4 1.4 1.4 1.4 1.4 1.4 1.4 1.4 1.4 1 1.4 1.4 1.4 1.4 1.4 1.4 1.4 1.4 1.4 1.4 1.4 1.4 1.4 1.4 1.4 1.4 1.4 1.4 1.4 1.4 1.4 1.4 1.4 1.4 1.4 1.4 1.4 1.4 1.4 1.4 1.4 1.4 1.4 1.4 1.4 1.4 1.4 1.4 1.4 1.4 1.4 1.4 1.4 1.4 1.4 1.4 1.4 1.4 1.4 1.4 1.4 1.4 1.4 1.4 1.4 1.4 1.4 1.4 1.4 1.4 1.4 1.4 1.4 1.4 1.4 1.4 1.4 1.4 1.4 1.4 1.4 1.4 1.4 1.4 1.4 1.4 1.4 1.4 1.4 1.4 1.4 1.4 1.4 1.4 1.5999999999999999 1.4 1.4 1.4 1.4 1.4 1.4 1.4 1.4 1.4 1.4 1.4 1.4 1.4 1.4 1.4 1.4 1.4 1.4 1.4 1.4 1.4 1.4 1.4 1.4 1.4 1.4 1.4 1.4 1.4 1.4 1.4 1.4 1.4 1.4 1.4 1.4 1.4 1.4 1.4 1.4 1.4 1.4 1.4 1.4 1.4 1.4 1.4 1.4 1.4 1.4 1.4 1.4 1.4 1.4 1.4 1.4 1.4 1.4 1.4 1.4 1.4 1.4 1.4 1.4 1.4 1.4 1.4 1.4 1.4 1.4 1.4 1.4 1.4 1.4 1.4 1.4 1.4 1.4 1.4 1.4 1.4 1.4 1.4 1.4 1.4 1.4 1.4 1.4 1.4 1.4 1.4 1.4 1.4 1.4 1.4 1.4 1.4 1.4 1.4 1.4 1.4 1.4 1.4 1.4 1.4 1.4 1.4 1.4 </DataArray>
</PointData>
<CellData/>
</Piece>
</UnstructuredGrid>
</VTKFile>
