<?xml version="1.0" ?>
<VTKFile byte_order="LittleEndian" type="UnstructuredGrid" version="0.1">
<UnstructuredGrid>
<Piece NumberOfCells="0" NumberOfPoints="32">
<Points>
<DataArray NumberOfComponents="3" format="ascii" type="Float32">4.0305102421502426 2.4471433632904711 2 6.9166604193834358 1.4995426444837563 2 15.521895559085888 1 2 18.847422830115921 1 2 20.594108241004061 1 2 36.717677515640261 2.0481981872574417 2 38.251259584599332 1.0099242714904246 2 41.770481401708714 1.8182938195753739 2 48.507109600972967 2.5060380926194856 2 51.163262076248309 2.0678903859279933 2 53.13059659765581 2.7342284547934668 2 64.610772785810923 1.9160768197069287 2 73.589786505210455 1.768061440337749 2 78.118145509360275 1.0988585339627928 2 79.940749611409402 1 2 91.171390413869716 1 2 3.1728674431378034 1 2 5.2460878038835403 1 2 16.816905921087798 1.8309802108753688 2 18.326287767112042 2.6112998961553866 2 21.86866204882125 1.8529846083480339 2 35.514658416691191 1 2 39.545775700509871 2.417156217902066 2 40.324747040848301 1 2 47.893192362564804 1 2 49.731696938137205 1 2 52.523281001983342 1 2 65.536439318571738 1 2 74.852942781597037 1 2 78.522373835020133 2.9107726870724773 2 80.468525729280941 2.5279524618510045 2 92.15171644394043 1.8767698057618118 2 </DataArray>
</Points>
<Cells>
<DataArray Name="connectivity" format="ascii" type="Int32">0</DataArray>
<DataArray Name="offsets" format="ascii" type="Int32">0</DataArray>
<DataArray Name="types" format="ascii" type="UInt8">1</DataArray>
</Cells>
<PointData>
<DataArray Name="Points" NumberOfComponents="3" format="ascii" type="Float32">4.0305102421502426 2.4471433632904711 2 6.9166604193834358 1.4995426444837563 2 15.521895559085888 1 2 18.847422830115921 1 2 20.594108241004061 1 2 36.717677515640261 2.0481981872574417 2 38.251259584599332 1.0099242714904246 2 41.770481401708714 1.8182938195753739 2 48.507109600972967 2.5060380926194856 2 51.163262076248309 2.0678903859279933 2 53.13059659765581 2.7342284547934668 2 64.610772785810923 1.9160768197069287 2 73.589786505210455 1.768061440337749 2 78.118145509360275 1.0988585339627928 2 79.940749611409402 1 2 91.171390413869716 1 2 3.1728674431378034 1 2 5.2460878038835403 1 2 16.816905921087798 1.8309802108753688 2 18.326287767112042 2.6112998961553866 2 21.86866204882125 1.8529846083480339 2 35.514658416691191 1 2 39.545775700509871 2.417156217902066 2 40.324747040848301 1 2 47.893192362564804 1 2 49.731696938137205 1 2 52.523281001983342 1 2 65.536439318571738 1 2 74.852942781597037 1 2 78.522373835020133 2.9107726870724773 2 80.468525729280941 2.5279524618510045 2 92.15171644394043 1.8767698057618118 2 </DataArray>
<DataArray Name="forces" NumberOfComponents="3" format="ascii" type="Float32">-0.044578965063047565 0.21377321517587694 0.0 -0.064096704493023848 -0.10793039166581525 0.0 0.0059844879418384234 -0.3393988665273483 0.0 -0.15293114687362594 -0.29234750088975175 0.0 -0.13708544350707269 -0.26480107847620521 0.0 0.16168181427821798 0.080401454322491905 0.0 0.058606466842284585 -0.15608718863975768 0.0 -0.063048671482398067 0.10894301016088416 0.0 0.07459132553821167 0.15280327100486218 0.0 0.062726416524707312 0.11390641104284774 0.0 -0.21390647847494165 0.17922526970372968 0.0 0.072022629322669451 0.17455491887023672 0.0 0.057002157375739104 0.19910598021156722 0.0 0.12751630834229888 -0.12442469316188008 0.0 -0.094035518130420243 -0.39934844181750506 0.0 -0.077588910639142972 -0.54809689255272265 0.0 0.048437717778656908 -0.30583146119877236 0.0 -0.1755631842442259 -0.16697683211947012 0.0 0.12514179913387669 0.013344068837433859 0.0 0.18105807901100046 0.15449994258652935 0.0 -0.052070429926190043 -0.0023770171664903583 0.0 0.09903705289510778 -0.35693842727181829 0.0 -0.13003848917357613 0.17537256824401787 0.0 -0.10999135988215131 -0.51961831602284869 0.0 0.042667517172134434 -0.56403700181724825 0.0 0.021809463580589883 -0.1851931707771361 0.0 -0.02021944818407545 -0.35937056679131418 0.0 0.038987566645394822 -0.59178707805764796 0.0 0.027764501681443843 -0.26917148707267424 0.0 0.023752084363451775 0.044100013567545109 0.0 -0.083321160840074598 0.082503190856728859 0.0 -0.081778927485082212 0.054773373666400671 0.0 </DataArray>
<DataArray Name="radii" format="ascii" type="Float32">1 1 1 1 1 1 1 1 1 1 1 1 1 1 1 1 1 1 1 1 1 1 1 1 1 1 1 1 1 1 1 1 </DataArray>
</PointData>
<CellData/>
</Piece>
</UnstructuredGrid>
</VTKFile>
