<?xml version="1.0" ?>
<VTKFile byte_order="LittleEndian" type="UnstructuredGrid" version="0.1">
<UnstructuredGrid>
<Piece NumberOfCells="0" NumberOfPoints="35">
<Points>
<DataArray NumberOfComponents="3" format="ascii" type="Float32">0 0 0 11.582185313168882 1.6721093508336753 2 18.049252206401075 3.3876577107811539 2 22.560149990971112 4.7462746162529568 2 25.368773010992175 1 2 27.42032866972119 1.0371331881553727 2 33.633215695009412 4.1172175350059677 2 36.412605555051513 3.0023499455271385 2 45.764901271084341 1.1304888436022515 2 48.516138353868762 4.4872320525094089 2 54.714233053938564 4.8025734792309018 2 62.621604280134015 1 2 67.423607385821015 3.1570113262512298 2 69.358245760902932 2.3513143784811219 2 74.052195935665495 4.1051536330060054 2 76.522116854887557 2.5148564168574001 2 82.223930420744338 2.7858395551503587 2 93.565610676596023 2.982543872400925 2 95.102879506217675 1.2142562086563071 2 13.465849794908589 1 2 22.925674500976285 2.7802834112162729 2 24.921216237338548 2.9471874390867456 2 28.55314686980805 2.6845715909905961 2 32.893384752574001 2.2465575784582321 2 46.026909679007844 3.1528294818624967 2 47.930621750734645 2.5802829930713855 2 55.567847034631008 3.0018484439506108 2 63.063084896322593 2.9466601548685603 2 67.466052200386343 1.1574581281657332 2 70.829518814348688 1 2 72.237975306662491 3.2636846555224803 2 75.208755851655496 1 2 83.173949119300076 1 2 93.09463279478328 4.9263017836082499 2 96.213565656749338 2.9368809142604269 2 </DataArray>
</Points>
<Cells>
<DataArray Name="connectivity" format="ascii" type="Int32">0</DataArray>
<DataArray Name="offsets" format="ascii" type="Int32">0</DataArray>
<DataArray Name="types" format="ascii" type="UInt8">1</DataArray>
</Cells>
<PointData>
<DataArray Name="Points" NumberOfComponents="3" format="ascii" type="Float32">0 0 0 11.582185313168882 1.6721093508336753 2 18.049252206401075 3.3876577107811539 2 22.560149990971112 4.7462746162529568 2 25.368773010992175 1 2 27.42032866972119 1.0371331881553727 2 33.633215695009412 4.1172175350059677 2 36.412605555051513 3.0023499455271385 2 45.764901271084341 1.1304888436022515 2 48.516138353868762 4.4872320525094089 2 54.714233053938564 4.8025734792309018 2 62.621604280134015 1 2 67.423607385821015 3.1570113262512298 2 69.358245760902932 2.3513143784811219 2 74.052195935665495 4.1051536330060054 2 76.522116854887557 2.5148564168574001 2 82.223930420744338 2.7858395551503587 2 93.565610676596023 2.982543872400925 2 95.102879506217675 1.2142562086563071 2 13.465849794908589 1 2 22.925674500976285 2.7802834112162729 2 24.921216237338548 2.9471874390867456 2 28.55314686980805 2.6845715909905961 2 32.893384752574001 2.2465575784582321 2 46.026909679007844 3.1528294818624967 2 47.930621750734645 2.5802829930713855 2 55.567847034631008 3.0018484439506108 2 63.063084896322593 2.9466601548685603 2 67.466052200386343 1.1574581281657332 2 70.829518814348688 1 2 72.237975306662491 3.2636846555224803 2 75.208755851655496 1 2 83.173949119300076 1 2 93.09463279478328 4.9263017836082499 2 96.213565656749338 2.9368809142604269 2 </DataArray>
<DataArray Name="forces" NumberOfComponents="3" format="ascii" type="Float32">0 0 0 -0.00011558050957861799 -0.00013920731422194103 0.0 0.0 0.0 0.0 -0.0016101769514020919 0.0089873377000145513 0.0 0.00055923489715768541 -0.0022963648243434823 0.0 0.0 0.0 0.0 0.0012828787252566383 0.0032619965631821616 0.0 -5.943042037328595e-05 0.00077504248100965885 0.0 0.0 0.0 0.0 0.0047703336053885629 0.017588123324869805 0.0 -0.0023988078507850728 0.0053914645198572912 0.0 0.0 0.0 0.0 0.0 0.0 0.0 -0.0048419541323324791 0.0044125476740699702 0.0 0.0 0.0 0.0 -0.002070503183697895 0.011772242571054456 0.0 -0.0055709908503887053 0.026273443292857787 0.0 0.0 0.0 0.0 -0.0011640744683317995 6.0400318884246399e-05 0.0 0.00025292998940212717 -0.00089820484159989686 0.0 0.004861371187042704 0.0061508451710933732 0.0 0.011822868600520712 0.0033787553374293542 0.0 -0.0010134138151852528 -7.6112577624501919e-05 0.0 -0.0028105383440433585 -0.0024281247695516883 0.0 -0.042507465961765467 0.013392913533239363 0.0 -0.025167836372622557 0.020155685638529555 0.0 0.016886426583761886 0.014890289255371385 0.0 -0.0019541715335556478 -0.00084808239153096184 0.0 0.0 0.0 0.0 -0.0057960281658352274 -0.0054208118610536496 0.0 -0.00075885884588007839 0.0019923235472107405 0.0 0.0016939076262643508 -0.0069182251230970847 0.0 0.0042913568018169562 -0.033578977683116747 0.0 0.0 0.0 0.0 0.0 0.0 0.0 </DataArray>
<DataArray Name="radii" format="ascii" type="Float32">0 1 1.2 1 1 1 1 1.2 1 1 1 1 1 1 1 1 1 1 1 1 1 1 1 1 1 1 1 1 1 1 1 1 1 1 1 </DataArray>
</PointData>
<CellData/>
</Piece>
</UnstructuredGrid>
</VTKFile>
