<?xml version="1.0" ?>
<VTKFile byte_order="LittleEndian" type="UnstructuredGrid" version="0.1">
<UnstructuredGrid>
<Piece NumberOfCells="0" NumberOfPoints="19">
<Points>
<DataArray NumberOfComponents="3" format="ascii" type="Float32">0 0 0 11.920852423764563 1.2 2 17.99225239864429 2.3436948679643099 2 23.638183446443541 2.0588392970712821 2 25.773327078443476 1.2 2 27.992536326751605 1.2 2 32.401351495676508 2.0100196343603982 2 36.173131042016806 2.2849893044649252 2 45.950834066249122 1.2 2 48.101147516069219 1.9262568984146997 2 55.683865802929304 2.1287644253292437 2 62.232396874679758 1.2 2 67.891711326270325 1.756775216603478 2 70.058727579418303 1.6309631517979297 2 73.891418623272003 1.8057512153159716 2 76.169189790307712 1.5291479594255395 2 83.816552413375163 1.2 2 94.317212575320141 1.6691925796320879 2 96.543125430997165 1.2 2 </DataArray>
</Points>
<Cells>
<DataArray Name="connectivity" format="ascii" type="Int32">0</DataArray>
<DataArray Name="offsets" format="ascii" type="Int32">0</DataArray>
<DataArray Name="types" format="ascii" type="UInt8">1</DataArray>
</Cells>
<PointData>
<DataArray Name="Points" NumberOfComponents="3" format="ascii" type="Float32">0 0 0 11.920852423764563 1.2 2 17.99225239864429 2.3436948679643099 2 23.638183446443541 2.0588392970712821 2 25.773327078443476 1.2 2 27.992536326751605 1.2 2 32.401351495676508 2.0100196343603982 2 36.173131042016806 2.2849893044649252 2 45.950834066249122 1.2 2 48.101147516069219 1.9262568984146997 2 55.683865802929304 2.1287644253292437 2 62.232396874679758 1.2 2 67.891711326270325 1.756775216603478 2 70.058727579418303 1.6309631517979297 2 73.891418623272003 1.8057512153159716 2 76.169189790307712 1.5291479594255395 2 83.816552413375163 1.2 2 94.317212575320141 1.6691925796320879 2 96.543125430997165 1.2 2 </DataArray>
<DataArray Name="forces" NumberOfComponents="3" format="ascii" type="Float32">0 0 0 -0.017312025278359983 -0.044505249815287765 0.0 0.0022437489387835199 0.087196958228227026 0.0 -0.058142280245122038 0.10918882630328455 0.0 0.016419977295091426 -0.06002947233834318 0.0 -0.04210972815876346 0.0 0.0 0.021700822600807565 0.081804338942603 0.0 0.012913299812864341 0.062094904573172197 0.0 -0.0080340674963170905 -0.074268674969052345 0.0 -0.029629111090499816 0.10831569319315285 0.0 -0.020701441194023618 0.14662618775424424 0.0 0.058867757447725128 -0.065471058527461837 0.0 0.0053415411109402344 0.070526479765351952 0.0 -0.078198509355085849 0.062205888104917104 0.0 -0.1314028822454448 0.089163375429351974 0.0 0.14999636840233618 0.0028932488544327409 0.0 0.048517197250738664 -0.081430148132613761 0.0 -0.020920498765919671 0.062238496164054524 0.0 -0.0019152477822738101 -0.02770355240623561 0.0 </DataArray>
<DataArray Name="radii" format="ascii" type="Float32">0 1.2 1.2 1.2 1.2 1.2 1.2 1.2 1.2 1.2 1.2 1.2 1.2 1.2 1.2 1.2 1.2 1.2 1.2 </DataArray>
</PointData>
<CellData/>
</Piece>
</UnstructuredGrid>
</VTKFile>
