<?xml version="1.0" ?>
<VTKFile byte_order="LittleEndian" type="UnstructuredGrid" version="0.1">
<UnstructuredGrid>
<Piece NumberOfCells="0" NumberOfPoints="16">
<Points>
<DataArray NumberOfComponents="3" format="ascii" type="Float32">3.7923197146101133 1.4000000000000004 2 6.5918919046698035 1.4000000000000004 2 15.960152837877251 1.4000000000000004 2 18.704060119071485 1.4000000000000004 2 21.418764901685559 1.4000000000000004 2 35.870239559498778 1.4000000000000004 2 38.61507339089097 1.4000000000000004 2 41.390783168958954 1.4000000000000004 2 48.175476709899115 1.4000000000000004 2 50.93715150915429 1.4000000000000004 2 53.638988900127188 1.8944610352297702 2 64.813027503187655 1.4000000000000004 2 73.577917094914355 1.4642135735306527 2 77.95084345108954 1.6415266155919144 2 80.574277421683533 1.4000000000000004 2 91.672652389830944 1.4000000000000004 2 </DataArray>
</Points>
<Cells>
<DataArray Name="connectivity" format="ascii" type="Int32">0</DataArray>
<DataArray Name="offsets" format="ascii" type="Int32">0</DataArray>
<DataArray Name="types" format="ascii" type="UInt8">1</DataArray>
</Cells>
<PointData>
<DataArray Name="Points" NumberOfComponents="3" format="ascii" type="Float32">3.7923197146101133 1.4000000000000004 2 6.5918919046698035 1.4000000000000004 2 15.960152837877251 1.4000000000000004 2 18.704060119071485 1.4000000000000004 2 21.418764901685559 1.4000000000000004 2 35.870239559498778 1.4000000000000004 2 38.61507339089097 1.4000000000000004 2 41.390783168958954 1.4000000000000004 2 48.175476709899115 1.4000000000000004 2 50.93715150915429 1.4000000000000004 2 53.638988900127188 1.8944610352297702 2 64.813027503187655 1.4000000000000004 2 73.577917094914355 1.4642135735306527 2 77.95084345108954 1.6415266155919144 2 80.574277421683533 1.4000000000000004 2 91.672652389830944 1.4000000000000004 2 </DataArray>
<DataArray Name="forces" NumberOfComponents="3" format="ascii" type="Float32">0.0 0.0 0.0 -0.0070569199561828725 -0.013136559105609909 0.0 -0.035158280038475306 -0.029411024696418236 0.0 -0.018224660473164261 -0.0038440238916227125 0.0 -0.021838220685538715 -0.11647238843470101 0.0 0.025930998216252249 0.0065945154357092703 0.0 0.0069403499050622944 -0.014568894053386636 0.0 0.022630795649501483 -0.0067949237920544806 0.0 -0.02783144369340906 -0.011089203495538881 0.0 -0.038788717167995423 -0.012613004705372513 0.0 -0.0082019673469471838 0.045105159899004238 0.0 0.032140008560961664 -0.03865893384255005 0.0 -0.0048985389081234862 0.014262044268837974 0.0 0.025224954121298548 0.048108830120717233 0.0 -0.072706799894580995 0.00010197148417536925 0.0 -0.023539497950018643 -0.14518632822247296 0.0 </DataArray>
<DataArray Name="radii" format="ascii" type="Float32">1.4000000000000004 1.4000000000000004 1.4000000000000004 1.4000000000000004 1.4000000000000004 1.4000000000000004 1.4000000000000004 1.4000000000000004 1.4000000000000004 1.4000000000000004 1.4000000000000004 1.4000000000000004 1.4000000000000004 1.4000000000000004 1.4000000000000004 1.4000000000000004 </DataArray>
</PointData>
<CellData/>
</Piece>
</UnstructuredGrid>
</VTKFile>
