<?xml version="1.0" ?>
<VTKFile byte_order="LittleEndian" type="UnstructuredGrid" version="0.1">
<UnstructuredGrid>
<Piece NumberOfCells="0" NumberOfPoints="15">
<Points>
<DataArray NumberOfComponents="3" format="ascii" type="Float32">1.2 1.2195300825887565 2 5.4974589220446344 1.6671265952147867 2 9.6710512787749163 1.6769032668012662 2 14.174764115828298 1.7904353408821228 2 30.283330139157968 1.2 2 39.880635643160218 2.2308428393093118 2 43.743558323098974 1.8464857468127938 2 57.748486987530001 1.2 2 59.972394305220185 1.2 2 64.203615188375352 2.3360490572881312 2 81.740451465822005 2.2267438977989671 2 86.000703555877706 1.2 2 88.30927275361924 1.2 2 90.380388087542954 2.0232657730325507 2 98.8 1.2 2 </DataArray>
</Points>
<Cells>
<DataArray Name="connectivity" format="ascii" type="Int32">0</DataArray>
<DataArray Name="offsets" format="ascii" type="Int32">0</DataArray>
<DataArray Name="types" format="ascii" type="UInt8">1</DataArray>
</Cells>
<PointData>
<DataArray Name="Points" NumberOfComponents="3" format="ascii" type="Float32">1.2 1.2195300825887565 2 5.4974589220446344 1.6671265952147867 2 9.6710512787749163 1.6769032668012662 2 14.174764115828298 1.7904353408821228 2 30.283330139157968 1.2 2 39.880635643160218 2.2308428393093118 2 43.743558323098974 1.8464857468127938 2 57.748486987530001 1.2 2 59.972394305220185 1.2 2 64.203615188375352 2.3360490572881312 2 81.740451465822005 2.2267438977989671 2 86.000703555877706 1.2 2 88.30927275361924 1.2 2 90.380388087542954 2.0232657730325507 2 98.8 1.2 2 </DataArray>
<DataArray Name="forces" NumberOfComponents="3" format="ascii" type="Float32">-0.047132167217695288 0.003633504401348605 0.0 -0.011118905163916053 0.035241696520774482 0.0 0.0055222213852978985 0.04521597486463301 0.0 0.03266664494852671 0.052294415727578439 0.0 0.07209225131972595 -0.039582543689960198 0.0 -0.019216983870195742 0.063798584614442017 0.0 -0.03491553508771264 0.067465335424549799 0.0 -0.0082706387878808407 -0.067948498335211036 0.0 -0.0088221260920278155 0.0 0.0 0.010831977803536882 0.14418972288194645 0.0 -0.066430991622898089 0.14552515922777454 0.0 -0.087906945542584936 0.0 0.0 0.098246715793109715 -0.040742503949938662 0.0 -0.018654024250117071 0.10498898188158776 0.0 0.14438607255918035 0.0 0.0 </DataArray>
<DataArray Name="radii" format="ascii" type="Float32">1.2 1.2 1.2 1.2 1.2 1.2 1.2 1.2 1.2 1.2 1.2 1.2 1.2 1.2 1.2 </DataArray>
</PointData>
<CellData/>
</Piece>
</UnstructuredGrid>
</VTKFile>
