<?xml version="1.0" ?>
<VTKFile byte_order="LittleEndian" type="UnstructuredGrid" version="0.1">
<UnstructuredGrid>
<Piece NumberOfCells="0" NumberOfPoints="27">
<Points>
<DataArray NumberOfComponents="3" format="ascii" type="Float32">1.2 1.2 2 5.2698524829524924 3.3513134250876964 2 8.405322886323221 2.7992160748162536 2 15.899165683968057 4.1478258028546771 2 30.291089684937429 1.5999999999999999 2 39.607506786063929 3.3373866043328015 2 43.168204470472389 2.6155290660090649 2 57.77013522114018 4.5474792005299358 2 60.677843276912327 3.9577720924189639 2 64.599705640299518 3.8796501864081439 2 78.982236324669444 4.532080441247027 2 87.409130166286573 1.5999999999999999 2 89.914191811813964 1.5999999999999999 2 89.691828692552022 7.0405541336288726 2 98.4 4.2303401197081776 2 9.8748748434244451 4.7511383389631501 2 12.877994318750234 4.5041705814314623 2 31.418662571391348 4.5952201409631286 2 41.676437660489292 3.7605789617275129 2 56.604087500913266 1.5999999999999999 2 59.414059279121069 1.5999999999999999 2 65.118929760331596 7.1924374476409367 2 83.320749960689909 6.5886200669891872 2 84.965894580176638 1.5999999999999999 2 87.77410900297356 4.5467756303416653 2 90.804502415955795 4.2748552380169427 2 97.751539315893297 1.5999999999999999 2 </DataArray>
</Points>
<Cells>
<DataArray Name="connectivity" format="ascii" type="Int32">0</DataArray>
<DataArray Name="offsets" format="ascii" type="Int32">0</DataArray>
<DataArray Name="types" format="ascii" type="UInt8">1</DataArray>
</Cells>
<PointData>
<DataArray Name="Points" NumberOfComponents="3" format="ascii" type="Float32">1.2 1.2 2 5.2698524829524924 3.3513134250876964 2 8.405322886323221 2.7992160748162536 2 15.899165683968057 4.1478258028546771 2 30.291089684937429 1.5999999999999999 2 39.607506786063929 3.3373866043328015 2 43.168204470472389 2.6155290660090649 2 57.77013522114018 4.5474792005299358 2 60.677843276912327 3.9577720924189639 2 64.599705640299518 3.8796501864081439 2 78.982236324669444 4.532080441247027 2 87.409130166286573 1.5999999999999999 2 89.914191811813964 1.5999999999999999 2 89.691828692552022 7.0405541336288726 2 98.4 4.2303401197081776 2 9.8748748434244451 4.7511383389631501 2 12.877994318750234 4.5041705814314623 2 31.418662571391348 4.5952201409631286 2 41.676437660489292 3.7605789617275129 2 56.604087500913266 1.5999999999999999 2 59.414059279121069 1.5999999999999999 2 65.118929760331596 7.1924374476409367 2 83.320749960689909 6.5886200669891872 2 84.965894580176638 1.5999999999999999 2 87.77410900297356 4.5467756303416653 2 90.804502415955795 4.2748552380169427 2 97.751539315893297 1.5999999999999999 2 </DataArray>
<DataArray Name="forces" NumberOfComponents="3" format="ascii" type="Float32">-0.029049281966441607 -0.0017315752700977386 0.0 -0.026867667092876094 0.069040685187602327 0.0 0.013927460121654911 -0.029354269594380783 0.0 0.040021345764728211 0.062553362140057356 0.0 0.0010289701376335336 -0.049858130344840448 0.0 -0.0082504326351971469 0.093456490978624268 0.0 -0.037029213100108621 0.031071343405244339 0.0 -0.09621541088710038 0.10455046488431338 0.0 0.010155645698092186 0.21182924858723823 0.0 -0.15089283987565733 0.14995074064477931 0.0 -0.16834384272152184 0.022935142763332649 0.0 0.030671975643787264 -0.24989308011482106 0.0 0.079280490994644792 -0.3225835478323219 0.0 -0.062810673789618604 0.25789224149326473 0.0 0.68771401773765328 0.30516446290279853 0.0 -0.098116920802722024 0.14632913573795492 0.0 -0.014938856982836778 0.13966967794888155 0.0 0.068118562328008281 0.064169446800287855 0.0 -0.01068429426142499 0.091236027436382219 0.0 -0.00046828610194427078 -0.12753139553641996 0.0 0.05039365242867927 -0.47837816545912698 0.0 0.055732881965173897 0.2969523691772995 0.0 0.10321212763524514 0.12950730925691137 0.0 -0.035179463007622758 0.0 0.0 -0.16567976401357723 0.20946777181844389 0.0 -0.15961810356933734 0.2202534464485861 0.0 0.29342217956659589 -0.50078970530163003 0.0 </DataArray>
<DataArray Name="radii" format="ascii" type="Float32">1.2 1.2 1 1.5999999999999999 1.5999999999999999 1.2 1 1.5999999999999999 1.5999999999999999 1.5999999999999999 1 1.5999999999999999 1.5999999999999999 1.5999999999999999 1.5999999999999999 1.5999999999999999 1.5999999999999999 1.5999999999999999 1 1.5999999999999999 1.5999999999999999 1.5999999999999999 1.5999999999999999 1.5999999999999999 1.5999999999999999 1.5999999999999999 1.5999999999999999 </DataArray>
</PointData>
<CellData/>
</Piece>
</UnstructuredGrid>
</VTKFile>
