<?xml version="1.0" ?>
<VTKFile byte_order="LittleEndian" type="UnstructuredGrid" version="0.1">
<UnstructuredGrid>
<Piece NumberOfCells="0" NumberOfPoints="116">
<Points>
<DataArray NumberOfComponents="3" format="ascii" type="Float32">0 0 0 8.9516756922719178 1 2 19.788663104108846 4.5314499669663713 2 21.885920138648142 8.2627360032738046 2 23.663471692321266 2.7898462931014438 2 26.578592222970283 2.540754792112295 2 35.649033545361398 3.6767910972547289 2 37.607877092618324 4.4396766755969823 2 45.675205132108324 1.4013198620934333 2 49.13529761499246 6.6507921396213643 2 53.801873794436155 7.4068644948670723 2 62.313258872097059 1 2 67.634095788486178 5.5072913920412399 2 70.471532132719673 5.3670726982356038 2 74.430895425844412 7.5989028534556811 2 76.740637997355421 2.8696432787273056 2 82.937783973572465 5.4758875859573761 2 93.173430690027729 6.9791843729853014 2 96.884624833093994 1.1348356378699709 2 14.711054301250568 4.6261962091021118 2 21.295987532666118 6.3572291834672745 2 23.156535854233375 6.2975112988779358 2 27.001375461558098 4.3001157215915615 2 33.373947119273311 1 2 45.183741218379353 4.1603822562980968 2 46.696106517773252 5.3974822283152326 2 52.644637659975672 5.396828312623418 2 62.692354331442694 9.8644097187247546 2 68.161848442367429 4.0639622481663329 2 70.789549124366374 3.0182955857157254 2 72.028189270198652 4.8064027311147379 2 76.560077802288916 1 2 81.728022941007168 1.7725019159403546 2 94.647773571746669 10.116289126824393 2 95.94502656477394 6.1400790475085003 2 11.667703767694656 2.5587374865395125 2 25.358362800035717 3.9163114907478431 2 28.668636364119568 2.4217104756057428 2 36.560651204820701 7.4321093113484613 2 43.773655107293401 1 2 61.210882481733023 2.4470721546652245 2 67.506801141693998 8.2428696265512436 2 70.919544427249591 8.6834694583799195 2 76.336211139726018 5.4710953675789344 2 80.535090004225808 4.5920808158786857 2 94.814162609029935 4.4257300914095552 2 94.040228372651384 1.3372911325387267 2 13.197188365787007 1.1204966911083736 2 22.226682233465443 4.1737965890257964 2 26.354283658108272 7.7557097000101693 2 28.314612042331945 7.5024969255635723 2 32.140409960092803 3.415759952057118 2 44.842611223913948 7.6164762023220822 2 49.979583200644434 5.0560713633808643 2 54.971997301686486 3.899057338005421 2 60.848951924077674 7.5809551807783064 2 67.92090000212329 1 2 72.469403206690714 1 2 75.068055112571358 3.2695871035638953 2 82.22799242361809 3.6468001266861023 2 92.189354248516054 9.2782395186868065 2 97.956013798729472 8.783329128069262 2 9.6798982544670711 2.6755610433830044 2 23.97571468294063 1 2 25.723080321105758 1 2 35.479150685642885 5.4835137900749276 2 46.757547753408716 3.0634376377444785 2 64.06299877475135 1 2 66.401436763272855 6.7517568144429418 2 69.123112635363341 6.41099103354808 2 72.836008515754159 6.5126325466267767 2 81.442400773423046 6.2699166979758862 2 93.542704853509917 5.3477861626528345 2 95.428109975887196 1 2 12.884660651001157 4.0138680998724121 2 19.385224314069305 6.4658371370324712 2 24.459664342659938 7.6336307353224351 2 28.66264206125469 4.2611360501154598 2 34.21427276956156 2.5398303498791477 2 43.661218449816595 5.2728878759472755 2 48.202908458822151 4.4153664209990318 2 51.364365332687157 6.7376966387896138 2 62.907530288150703 8.0792483480740849 2 69.609332750868987 3.7453129715067766 2 69.743890196351131 1.0645536768168222 2 73.317530427390182 3.8490756027903505 2 82.973769791769229 1 2 93.928977499322656 8.4844233767432549 2 95.444207896848454 7.6255206224464507 2 10.860813940681529 1 2 23.920224926984432 4.6741023856289017 2 27.620219896779403 1 2 34.67984962759833 7.8438331927987219 2 43.94622877300182 2.7486632359892389 2 60.375962005208912 1 2 65.801513519130822 8.5797422161176851 2 69.195627793176357 8.1992185692268933 2 77.264947547040435 7.2128493496549142 2 79.59951089147269 6.0736478563314389 2 95.221024256133319 2.7375448798655757 2 92.611173141158687 1 2 14.342595163129657 2.7583142202475672 2 20.919090212857277 2.9244176523219925 2 27.142611703236721 6.0465419375645748 2 30.076495488508815 8.1892390265665505 2 33.866022206705587 4.2763301917955348 2 42.930363792366137 7.0486361365061487 2 50.672762434500584 3.5940602268375086 2 54.489443709692807 5.608613228010026 2 62.545007660263181 6.4198171611739809 2 67.882004243364506 2.4677171604129251 2 71.422874836207555 1.8351015667286978 2 74.55704495451981 5.1861722840133355 2 84.024899739104129 4.2975035100163943 2 91.451102812949443 7.5409251886164705 2 96.577684999002628 10.134572291537754 2 </DataArray>
</Points>
<Cells>
<DataArray Name="connectivity" format="ascii" type="Int32">0</DataArray>
<DataArray Name="offsets" format="ascii" type="Int32">0</DataArray>
<DataArray Name="types" format="ascii" type="UInt8">1</DataArray>
</Cells>
<PointData>
<DataArray Name="Points" NumberOfComponents="3" format="ascii" type="Float32">0 0 0 8.9516756922719178 1 2 19.788663104108846 4.5314499669663713 2 21.885920138648142 8.2627360032738046 2 23.663471692321266 2.7898462931014438 2 26.578592222970283 2.540754792112295 2 35.649033545361398 3.6767910972547289 2 37.607877092618324 4.4396766755969823 2 45.675205132108324 1.4013198620934333 2 49.13529761499246 6.6507921396213643 2 53.801873794436155 7.4068644948670723 2 62.313258872097059 1 2 67.634095788486178 5.5072913920412399 2 70.471532132719673 5.3670726982356038 2 74.430895425844412 7.5989028534556811 2 76.740637997355421 2.8696432787273056 2 82.937783973572465 5.4758875859573761 2 93.173430690027729 6.9791843729853014 2 96.884624833093994 1.1348356378699709 2 14.711054301250568 4.6261962091021118 2 21.295987532666118 6.3572291834672745 2 23.156535854233375 6.2975112988779358 2 27.001375461558098 4.3001157215915615 2 33.373947119273311 1 2 45.183741218379353 4.1603822562980968 2 46.696106517773252 5.3974822283152326 2 52.644637659975672 5.396828312623418 2 62.692354331442694 9.8644097187247546 2 68.161848442367429 4.0639622481663329 2 70.789549124366374 3.0182955857157254 2 72.028189270198652 4.8064027311147379 2 76.560077802288916 1 2 81.728022941007168 1.7725019159403546 2 94.647773571746669 10.116289126824393 2 95.94502656477394 6.1400790475085003 2 11.667703767694656 2.5587374865395125 2 25.358362800035717 3.9163114907478431 2 28.668636364119568 2.4217104756057428 2 36.560651204820701 7.4321093113484613 2 43.773655107293401 1 2 61.210882481733023 2.4470721546652245 2 67.506801141693998 8.2428696265512436 2 70.919544427249591 8.6834694583799195 2 76.336211139726018 5.4710953675789344 2 80.535090004225808 4.5920808158786857 2 94.814162609029935 4.4257300914095552 2 94.040228372651384 1.3372911325387267 2 13.197188365787007 1.1204966911083736 2 22.226682233465443 4.1737965890257964 2 26.354283658108272 7.7557097000101693 2 28.314612042331945 7.5024969255635723 2 32.140409960092803 3.415759952057118 2 44.842611223913948 7.6164762023220822 2 49.979583200644434 5.0560713633808643 2 54.971997301686486 3.899057338005421 2 60.848951924077674 7.5809551807783064 2 67.92090000212329 1 2 72.469403206690714 1 2 75.068055112571358 3.2695871035638953 2 82.22799242361809 3.6468001266861023 2 92.189354248516054 9.2782395186868065 2 97.956013798729472 8.783329128069262 2 9.6798982544670711 2.6755610433830044 2 23.97571468294063 1 2 25.723080321105758 1 2 35.479150685642885 5.4835137900749276 2 46.757547753408716 3.0634376377444785 2 64.06299877475135 1 2 66.401436763272855 6.7517568144429418 2 69.123112635363341 6.41099103354808 2 72.836008515754159 6.5126325466267767 2 81.442400773423046 6.2699166979758862 2 93.542704853509917 5.3477861626528345 2 95.428109975887196 1 2 12.884660651001157 4.0138680998724121 2 19.385224314069305 6.4658371370324712 2 24.459664342659938 7.6336307353224351 2 28.66264206125469 4.2611360501154598 2 34.21427276956156 2.5398303498791477 2 43.661218449816595 5.2728878759472755 2 48.202908458822151 4.4153664209990318 2 51.364365332687157 6.7376966387896138 2 62.907530288150703 8.0792483480740849 2 69.609332750868987 3.7453129715067766 2 69.743890196351131 1.0645536768168222 2 73.317530427390182 3.8490756027903505 2 82.973769791769229 1 2 93.928977499322656 8.4844233767432549 2 95.444207896848454 7.6255206224464507 2 10.860813940681529 1 2 23.920224926984432 4.6741023856289017 2 27.620219896779403 1 2 34.67984962759833 7.8438331927987219 2 43.94622877300182 2.7486632359892389 2 60.375962005208912 1 2 65.801513519130822 8.5797422161176851 2 69.195627793176357 8.1992185692268933 2 77.264947547040435 7.2128493496549142 2 79.59951089147269 6.0736478563314389 2 95.221024256133319 2.7375448798655757 2 92.611173141158687 1 2 14.342595163129657 2.7583142202475672 2 20.919090212857277 2.9244176523219925 2 27.142611703236721 6.0465419375645748 2 30.076495488508815 8.1892390265665505 2 33.866022206705587 4.2763301917955348 2 42.930363792366137 7.0486361365061487 2 50.672762434500584 3.5940602268375086 2 54.489443709692807 5.608613228010026 2 62.545007660263181 6.4198171611739809 2 67.882004243364506 2.4677171604129251 2 71.422874836207555 1.8351015667286978 2 74.55704495451981 5.1861722840133355 2 84.024899739104129 4.2975035100163943 2 91.451102812949443 7.5409251886164705 2 96.577684999002628 10.134572291537754 2 </DataArray>
<DataArray Name="forces" NumberOfComponents="3" format="ascii" type="Float32">0 0 0 0.033893721228021922 -0.18285773311842399 0.0 0.24643729006139031 0.214156597012891 0.0 0.0027481607111883312 0.0089698893275794965 0.0 0.008407397005468201 0.13544484754110137 0.0 0.10161216715247809 0.022872547819892564 0.0 -0.0054570195253544201 0.014611197642578538 0.0 -0.032814190846933829 0.14062026734763741 0.0 -0.10020471817980324 0.010257694044498181 0.0 -0.091041766163286741 0.17618773128603474 0.0 -0.026146658542262672 0.06885919049206278 0.0 -0.18524555540394327 -0.26917926953534793 0.0 -0.058293596813781268 0.1670495245296087 0.0 -0.012160409291930047 0.082051397765904477 0.0 0.063690732778581102 0.043781354209874626 0.0 0.02738657664066102 -0.0084578103743003646 0.0 -0.074786220839032191 0.015636671711803996 0.0 0.062768562389750038 0.060985055801336195 0.0 0.20327534262533692 -0.27489174157626539 0.0 -0.063011424857062168 0.1054917664847308 0.0 -0.046867486593485302 -0.0071543989768798055 0.0 -0.040286683298959777 0.074745348297279815 0.0 -0.010506697142226268 0.013389704714852235 0.0 -0.015045245873751015 -0.24502400646095712 0.0 0.083201034767867346 0.052411003829933925 0.0 -0.15474064111497821 0.13402735050501824 0.0 -0.031143743826820613 0.1223382142693788 0.0 -0.025227792016384702 0.20656722332817229 0.0 -0.14612521555658781 0.10081914936010894 0.0 0.18593111006147328 0.23897315111123152 0.0 -0.039397541276842474 0.012820819759677721 0.0 -0.016597885569420434 -0.17456349884729272 0.0 0.037794371297090845 0.099699981546312377 0.0 0.019221856910504598 0.20712483900420969 0.0 -0.2325623888304732 -0.008005526346749392 0.0 0.1146175372641097 0.023630914442799356 0.0 -0.082005296291802809 -0.11753323840574303 0.0 -0.070506383368634101 0.081091258186605314 0.0 0.085986397678979462 -0.017157572252397533 0.0 0.020222784005943347 -0.30153209571831735 0.0 -0.034484618601148861 0.16060719814237512 0.0 0.0291153551932678 0.077601787436094541 0.0 0.20934291958932433 0.060666955546239687 0.0 -0.053689657382210848 0.028569354291351236 0.0 0.074901607752470012 0.13922648196310655 0.0 0.099548214850263606 0.043301677145955356 0.0 -0.095693911742334659 -0.054891485828877346 0.0 -0.080473385768325634 -0.0075971321318208168 0.0 -0.10025795427595488 0.073740279609374459 0.0 0.046806008505420327 0.12204400130154155 0.0 -0.055205992001736981 0.12075573772342266 0.0 0.091661964492940992 0.061803463679350988 0.0 0.0084220231934383945 0.0025565398258535718 0.0 0.034271265813789809 0.21915527460558917 0.0 0.057334225314878529 0.15618092316144638 0.0 -0.010886003672242343 0.084667887564262884 0.0 0.084675700201703175 -0.54784107709013041 0.0 0.15000883469269771 -0.84062772029812405 0.0 0.020672065457756371 0.09152006104847743 0.0 -0.010108417803780509 0.050643896332944333 0.0 0.059739399619714376 0.083383817677872965 0.0 -0.018334879025429809 0.052276947388842053 0.0 0.22293545017009336 0.044291239546539962 0.0 0.021089165371614593 -0.2507138297377231 0.0 0.032624684830197537 -0.21372016077949554 0.0 0.13738251156138054 0.11513061510354311 0.0 0.059963582879157193 -0.052541013600718056 0.0 0.014836091368971502 -0.29138682175557806 0.0 -0.077286633253907361 0.1358403648093984 0.0 -0.022239628011551382 0.099473470191761004 0.0 -0.012249827512660696 0.064915245882542008 0.0 -0.028520699460726689 0.1787911250100063 0.0 0.03107005450820724 0.033862377547944862 0.0 0.04919144626044869 -0.45393432520969268 0.0 -0.049028666209506751 0.061290000818480399 0.0 -0.097109090186199176 0.27425625189441721 0.0 -0.013556447866403712 0.091886780575706511 0.0 0.10462056104612838 0.10514106978452803 0.0 -0.10146322604928526 0.016317944857915156 0.0 0.019259866077171318 0.035688964424059971 0.0 -0.041598962102276968 0.17063973786827852 0.0 -0.10432608428811448 0.11026382847657358 0.0 -0.040182911416443548 0.15935156157003 0.0 -0.096895343142713863 0.086610543289619757 0.0 0.047946001908501124 -0.049395845790070357 0.0 0.0059622277527957984 0.092060675796878613 0.0 0.041173527782872726 -0.44710480474544978 0.0 -0.12517030353277289 0.18939138920795401 0.0 0.07707178317111435 0.28775840404988606 0.0 -0.033797517316453279 -0.22835025939619019 0.0 -0.0057992424039203516 0.16181379519630862 0.0 0.041607371416888056 -0.29875068278783268 0.0 0.046251638271343362 0.25626082785739607 0.0 0.084939283765718201 0.061069933139774824 0.0 0.11285392431774996 -0.60035432768440289 0.0 -0.018467912365698842 0.16990482742712826 0.0 0.11973153198962366 0.1464480121753815 0.0 0.014117988462521772 0.02674869367924675 0.0 -0.094064970638917847 0.12197255018564856 0.0 0.025751034973523712 -0.034833987755562512 0.0 -0.2056981244171904 -0.37951360503423853 0.0 -0.06494446382500399 0.060786818605610221 0.0 -0.026738415486818962 -0.1001372467731103 0.0 -0.012923243807495516 0.028992033829721708 0.0 0.010659094155641979 0.12630810038192203 0.0 0.12327717557231693 0.1220337564799141 0.0 -0.041853402077387136 0.079336975060114417 0.0 -0.055580429804023279 0.081487445791127266 0.0 0.001192721023583948 0.088064533553633445 0.0 0.046195984301210163 0.05487495853305456 0.0 0.1532247665792397 -0.012090338949824697 0.0 -0.072097007136646657 -0.1010385499533831 0.0 -0.087474092908001219 0.11333501891798131 0.0 0.057168945620044063 0.11256474903179398 0.0 -0.010869476515151633 0.060085182088541911 0.0 0.023626784595419878 0.047014764875115758 0.0 </DataArray>
<DataArray Name="radii" format="ascii" type="Float32">0 1 1.2 1 1 1 1 1.2 1 1 1 1 1 1 1 1 1 1 1 1 1 1 1 1 1 1 1 1 1 1 1 1 1 1 1 1 1 1 1 1 1 1 1 1 1 1 1 1 1 1 1 1 1 1 1 1 1 1 1 1 1 1 1 1 1 1 1 1 1 1 1 1 1 1 1 1 1 1 1 1 1 1 1 1 1 1 1 1 1 1 1 1 1 1 1 1 1 1 1 1 1 1 1 1 1 1 1 1 1 1 1 1 1 1 1 1 </DataArray>
</PointData>
<CellData/>
</Piece>
</UnstructuredGrid>
</VTKFile>
