<?xml version="1.0" ?>
<VTKFile byte_order="LittleEndian" type="UnstructuredGrid" version="0.1">
<UnstructuredGrid>
<Piece NumberOfCells="0" NumberOfPoints="32">
<Points>
<DataArray NumberOfComponents="3" format="ascii" type="Float32">11.972768288750848 6.8765491109516041 2 23.617158862117087 1.2 2 44.937139961286853 4.8113914230429966 2 75.779060866043835 1.2 2 10.988378333382386 5.0146318769167957 2 21.728745674231902 3.5651065248558336 2 41.818054639048114 5.034486657609083 2 77.680022753783277 6.5760575441163303 2 16.547051373492625 3.7448323558604497 2 25.750972831288827 2.4546748373249931 2 43.447837579098518 6.2777627069182405 2 77.682635189796059 1.2 2 11.933619593384769 1.2 2 23.864180513820241 7.4183961026823093 2 44.189360301148966 1.2 2 75.781549074068835 5.3379830280666791 2 14.220327853504845 7.1657574541627396 2 25.245079568942362 1.2 2 44.776789116287503 2.845989434706746 2 73.376007115755684 2.7001999988602616 2 9.0077351985962224 4.2559735006997865 2 23.617438727321936 2.9485306517577783 2 43.103111201680605 3.3574187199758501 2 79.906777670944848 6.947256138968263 2 15.284001080462893 5.2629845511828579 2 27.315210467835854 1.2 2 45.582142172567025 7.0801800731662805 2 76.708278181455043 2.7998583389446421 2 10.93115078512503 3.0675727084098661 2 25.483680937217219 6.1784359537123015 2 45.947628759297842 1.2 2 75.122094731028881 3.2506237428176372 2 </DataArray>
</Points>
<Cells>
<DataArray Name="connectivity" format="ascii" type="Int32">0</DataArray>
<DataArray Name="offsets" format="ascii" type="Int32">0</DataArray>
<DataArray Name="types" format="ascii" type="UInt8">1</DataArray>
</Cells>
<PointData>
<DataArray Name="Points" NumberOfComponents="3" format="ascii" type="Float32">11.972768288750848 6.8765491109516041 2 23.617158862117087 1.2 2 44.937139961286853 4.8113914230429966 2 75.779060866043835 1.2 2 10.988378333382386 5.0146318769167957 2 21.728745674231902 3.5651065248558336 2 41.818054639048114 5.034486657609083 2 77.680022753783277 6.5760575441163303 2 16.547051373492625 3.7448323558604497 2 25.750972831288827 2.4546748373249931 2 43.447837579098518 6.2777627069182405 2 77.682635189796059 1.2 2 11.933619593384769 1.2 2 23.864180513820241 7.4183961026823093 2 44.189360301148966 1.2 2 75.781549074068835 5.3379830280666791 2 14.220327853504845 7.1657574541627396 2 25.245079568942362 1.2 2 44.776789116287503 2.845989434706746 2 73.376007115755684 2.7001999988602616 2 9.0077351985962224 4.2559735006997865 2 23.617438727321936 2.9485306517577783 2 43.103111201680605 3.3574187199758501 2 79.906777670944848 6.947256138968263 2 15.284001080462893 5.2629845511828579 2 27.315210467835854 1.2 2 45.582142172567025 7.0801800731662805 2 76.708278181455043 2.7998583389446421 2 10.93115078512503 3.0675727084098661 2 25.483680937217219 6.1784359537123015 2 45.947628759297842 1.2 2 75.122094731028881 3.2506237428176372 2 </DataArray>
<DataArray Name="forces" NumberOfComponents="3" format="ascii" type="Float32">-0.04198623093982809 0.31904538470231864 0.0 0.048087363957963945 -0.65710262473028913 0.0 -0.10796516917786195 0.23928261690842928 0.0 0.049658615977648271 -0.71670268930011449 0.0 -0.00046247786131441669 0.26884386753179723 0.0 0.016023109118100481 0.25001411898137588 0.0 0.016966078344878316 0.24482479594484935 0.0 -0.017734576478889524 0.30609527393643171 0.0 -0.019325343089243996 0.11275712865907267 0.0 -0.10534656505906032 0.3185770056561017 0.0 -0.055977470519883971 0.39058930605037434 0.0 0.053315008981820955 -0.88684072571218153 0.0 -0.040010915876048547 -0.61300246936232017 0.0 0.011495640478462799 0.33965630246532952 0.0 -0.010628746361692643 -0.61629627411891408 0.0 -0.054565092917010838 0.31247287359368014 0.0 -0.012534971614676732 0.21504774676284008 0.0 0.058913007687781183 -0.98726076609694424 0.0 0.036394033479197868 0.17387782976259969 0.0 -0.031883753487835897 0.21663323889079189 0.0 -0.023380530598387878 0.30901791071132378 0.0 -0.02162807664908303 0.22595970887130307 0.0 0.01103624788508839 0.2082112599218314 0.0 0.0082458820765447666 0.27845068350277496 0.0 0.067069348165791437 0.22985969015223121 0.0 -0.04838064442239487 -0.70207635951617919 0.0 -0.0088925193669507976 0.23664417894810211 0.0 0.034022294076254678 0.19058643839135089 0.0 -0.016893102587533626 0.23829438521723845 0.0 0.026885981465720632 0.30715615816871572 0.0 0.015587706703619975 -0.54478406829316772 0.0 0.0061512597191778484 0.22256139331597341 0.0 </DataArray>
<DataArray Name="radii" format="ascii" type="Float32">1.2 1.2 1.2 1.2 1.2 1.2 1.2 1.2 1.2 1.2 1.2 1.2 1.2 1.2 1.2 1.2 1.2 1.2 1.2 1.2 1.2 1.2 1.2 1.2 1.2 1.2 1.2 1.2 1.2 1.2 1.2 1.2 </DataArray>
</PointData>
<CellData/>
</Piece>
</UnstructuredGrid>
</VTKFile>
