<?xml version="1.0" ?>
<VTKFile byte_order="LittleEndian" type="UnstructuredGrid" version="0.1">
<UnstructuredGrid>
<Piece NumberOfCells="0" NumberOfPoints="32">
<Points>
<DataArray NumberOfComponents="3" format="ascii" type="Float32">11.481103227918457 7.2118044865479263 2 23.322152168034471 1.5999999999999999 2 44.470285775814673 4.9780941279502029 2 75.948365983200091 1.5999999999999999 2 10.667328611519817 4.8116751676888319 2 22.091386498541311 3.9316466055207515 2 41.761740096878583 4.9325079766255744 2 77.19104891417652 7.0997229800047545 2 16.654053388947659 3.8824109052624562 2 26.229480182321904 1.5999999999999999 2 43.039309095072248 6.9187131469878462 2 77.574207961566316 1.5999999999999999 2 12.090969572023079 1.5999999999999999 2 23.824990030458352 7.9030344035093671 2 44.218380676508133 1.5999999999999999 2 75.755936483397775 5.2722555654789591 2 14.204265195143481 7.3924369607841172 2 24.852310448711151 1.5999999999999999 2 44.947206531847606 2.849333360391777 2 73.207001447550311 1.5999999999999999 2 8.7284037468119404 3.9224846095027259 2 23.84744461919972 3.1283349518516452 2 43.228794808485652 3.6313123975240833 2 79.70293023347682 7.0879757277207212 2 15.420406733299931 5.248063855218275 2 27.788028351414791 1.5999999999999999 2 45.483901373945201 7.5359964592791577 2 76.797646861433009 2.8542543186618117 2 10.697408215157807 3.0498790623193899 2 25.985252617133533 6.4084293674817303 2 45.92807049513808 1.5999999999999999 2 74.750704376989205 3.3588815334356146 2 </DataArray>
</Points>
<Cells>
<DataArray Name="connectivity" format="ascii" type="Int32">0</DataArray>
<DataArray Name="offsets" format="ascii" type="Int32">0</DataArray>
<DataArray Name="types" format="ascii" type="UInt8">1</DataArray>
</Cells>
<PointData>
<DataArray Name="Points" NumberOfComponents="3" format="ascii" type="Float32">11.481103227918457 7.2118044865479263 2 23.322152168034471 1.5999999999999999 2 44.470285775814673 4.9780941279502029 2 75.948365983200091 1.5999999999999999 2 10.667328611519817 4.8116751676888319 2 22.091386498541311 3.9316466055207515 2 41.761740096878583 4.9325079766255744 2 77.19104891417652 7.0997229800047545 2 16.654053388947659 3.8824109052624562 2 26.229480182321904 1.5999999999999999 2 43.039309095072248 6.9187131469878462 2 77.574207961566316 1.5999999999999999 2 12.090969572023079 1.5999999999999999 2 23.824990030458352 7.9030344035093671 2 44.218380676508133 1.5999999999999999 2 75.755936483397775 5.2722555654789591 2 14.204265195143481 7.3924369607841172 2 24.852310448711151 1.5999999999999999 2 44.947206531847606 2.849333360391777 2 73.207001447550311 1.5999999999999999 2 8.7284037468119404 3.9224846095027259 2 23.84744461919972 3.1283349518516452 2 43.228794808485652 3.6313123975240833 2 79.70293023347682 7.0879757277207212 2 15.420406733299931 5.248063855218275 2 27.788028351414791 1.5999999999999999 2 45.483901373945201 7.5359964592791577 2 76.797646861433009 2.8542543186618117 2 10.697408215157807 3.0498790623193899 2 25.985252617133533 6.4084293674817303 2 45.92807049513808 1.5999999999999999 2 74.750704376989205 3.3588815334356146 2 </DataArray>
<DataArray Name="forces" NumberOfComponents="3" format="ascii" type="Float32">-0.038477501680630188 1.0952744344762251 0.0 -0.0071723123079742157 -2.2261527943060213 0.0 0.048833635566623207 1.1872694493987015 0.0 -0.021755669308174519 -2.4054215075976475 0.0 -0.12886119379081776 1.0805028818375031 0.0 0.044426453580583614 1.2265139729873844 0.0 -0.16931999403403766 1.1084358037684221 0.0 -0.027016048094212042 1.108256610749079 0.0 0.26736622035333524 1.1101184119984555 0.0 0.043026331021185249 -2.0303074330853041 0.0 -0.041207535684453123 1.0420693505976311 0.0 -0.044231766946289275 -2.1960119371940166 0.0 -0.031566334872437873 -2.1169515776238965 0.0 -0.10000249711982157 1.1370891011545714 0.0 -0.071390323997183813 -2.5759600622240271 0.0 -0.096781768532803736 1.0875526983066939 0.0 0.034594147931787889 1.1295720119134804 0.0 -0.026537357602708256 -2.196367364157974 0.0 0.0054262315543924799 1.1094211261126379 0.0 -0.035728266003590581 -1.8356292126793594 0.0 -0.09058389421002544 1.2068605135268002 0.0 0.015400113491845058 1.1500991348831711 0.0 0.087878085129795114 1.4086670217706101 0.0 -0.023570145299851242 0.91905115709243546 0.0 -0.030991930564203574 1.0827134720709366 0.0 0.076074294848443413 -1.9281446110745284 0.0 0.00646095032719185 1.1595189874777043 0.0 0.16992762256962168 1.1610726082776008 0.0 -0.022137779832560489 1.1350519593085684 0.0 0.038443224003743282 1.1163657904008897 0.0 -0.086452043732679618 -2.5233911300777456 0.0 0.045244326743831609 1.1347305618094876 0.0 </DataArray>
<DataArray Name="radii" format="ascii" type="Float32">1.5999999999999999 1.5999999999999999 1.5999999999999999 1.5999999999999999 1.5999999999999999 1.5999999999999999 1.5999999999999999 1.5999999999999999 1.5999999999999999 1.5999999999999999 1.5999999999999999 1.5999999999999999 1.5999999999999999 1.5999999999999999 1.5999999999999999 1.5999999999999999 1.5999999999999999 1.5999999999999999 1.5999999999999999 1.5999999999999999 1.5999999999999999 1.5999999999999999 1.5999999999999999 1.5999999999999999 1.5999999999999999 1.5999999999999999 1.5999999999999999 1.5999999999999999 1.5999999999999999 1.5999999999999999 1.5999999999999999 1.5999999999999999 </DataArray>
</PointData>
<CellData/>
</Piece>
</UnstructuredGrid>
</VTKFile>
