<?xml version="1.0" ?>
<VTKFile byte_order="LittleEndian" type="UnstructuredGrid" version="0.1">
<UnstructuredGrid>
<Piece NumberOfCells="0" NumberOfPoints="27">
<Points>
<DataArray NumberOfComponents="3" format="ascii" type="Float32">1.2 1.2 2 5.3736815618644886 2.8155134023671318 2 8.6625093937621234 2.7945828052268187 2 15.44149146160248 3.079208789977776 2 31.340461094800503 1 2 39.610540523916981 2.9749271799537489 2 43.656361854854204 2.7421665003482976 2 57.641357227258965 2.6023650673111893 2 60.57521009644276 2.0696958210026093 2 64.904519391083255 3.7458162900122907 2 80.459500737077178 4.0484992117428655 2 86.935937345379656 1.9875856539807517 2 89.567870353420162 1.2073897362676711 2 90.096640621754844 4.85290666778263 2 99.0 1.7395837891759969 2 10.569543685470395 3.3968211767684022 2 13.458633224565597 2.9997267043951878 2 30.549882905610026 2.8372999340338612 2 41.779484227633922 3.4330683421303889 2 56.496406151858956 1 2 58.885873810003325 1 2 65.010623641730376 5.7423000600773113 2 82.516942609101989 4.7359412200857571 2 85.094972265259642 1 2 88.596561164058699 2.9560706224395181 2 91.394344589797754 3.3311477566294085 2 97.103892306804781 1.1103042675218489 2 </DataArray>
</Points>
<Cells>
<DataArray Name="connectivity" format="ascii" type="Int32">0</DataArray>
<DataArray Name="offsets" format="ascii" type="Int32">0</DataArray>
<DataArray Name="types" format="ascii" type="UInt8">1</DataArray>
</Cells>
<PointData>
<DataArray Name="Points" NumberOfComponents="3" format="ascii" type="Float32">1.2 1.2 2 5.3736815618644886 2.8155134023671318 2 8.6625093937621234 2.7945828052268187 2 15.44149146160248 3.079208789977776 2 31.340461094800503 1 2 39.610540523916981 2.9749271799537489 2 43.656361854854204 2.7421665003482976 2 57.641357227258965 2.6023650673111893 2 60.57521009644276 2.0696958210026093 2 64.904519391083255 3.7458162900122907 2 80.459500737077178 4.0484992117428655 2 86.935937345379656 1.9875856539807517 2 89.567870353420162 1.2073897362676711 2 90.096640621754844 4.85290666778263 2 99.0 1.7395837891759969 2 10.569543685470395 3.3968211767684022 2 13.458633224565597 2.9997267043951878 2 30.549882905610026 2.8372999340338612 2 41.779484227633922 3.4330683421303889 2 56.496406151858956 1 2 58.885873810003325 1 2 65.010623641730376 5.7423000600773113 2 82.516942609101989 4.7359412200857571 2 85.094972265259642 1 2 88.596561164058699 2.9560706224395181 2 91.394344589797754 3.3311477566294085 2 97.103892306804781 1.1103042675218489 2 </DataArray>
<DataArray Name="forces" NumberOfComponents="3" format="ascii" type="Float32">-0.0038886551795105362 -3.6035675257352509e-19 0.0 0.0012911573349610309 0.0029249619819044889 0.0 0.00023909048893444433 0.00087934013660016601 0.0 -0.012117443713434376 0.019075695646136651 0.0 0.00051697164430430248 -0.0012004695956581389 0.0 0.00018861739182293334 0.00076949482715424453 0.0 0.0 0.0 0.0 0.015035297537613006 0.019366969465261501 0.0 0.0 0.0 0.0 0.0019541715335556478 0.00084808239153096184 0.0 0.0 0.0 0.0 0.033447899420314828 0.018386865895757581 0.0 1.5393213284650269e-05 -2.7275660623866502e-05 0.0 -0.0014003497653594396 0.0016482621705091057 0.0 0.00014678841092119954 4.8630695220288084e-05 0.0 0.00071784177938369689 0.00049849263872691306 0.0 -2.6885623483772111e-06 0.0008086690954781842 0.0 0.00049644217088095027 0.0012765821732826409 0.0 0.0 0.0 0.0 0.044849718471303375 -0.024988696262398524 0.0 0.0 0.0 0.0 0.0 0.0 0.0 0.0031710807041497899 0.022701017735190128 0.0 -0.02496854044306502 -0.021445330619623938 0.0 0.0052422335916394039 0.003085740384490224 0.0 0.00046937055424915589 0.0019974442700236381 0.0 0.0010172860574106 -0.00010903101410453448 0.0 </DataArray>
<DataArray Name="radii" format="ascii" type="Float32">1.2 1.2 1 1 1 1.2 1 1 1 1 1 1 1 1 1 1 1 1 1 1 1 1 1 1 1 1 1 </DataArray>
</PointData>
<CellData/>
</Piece>
</UnstructuredGrid>
</VTKFile>
