<?xml version="1.0" ?>
<VTKFile byte_order="LittleEndian" type="UnstructuredGrid" version="0.1">
<UnstructuredGrid>
<Piece NumberOfCells="0" NumberOfPoints="27">
<Points>
<DataArray NumberOfComponents="3" format="ascii" type="Float32">1.2 1.2 2 5.3645018248715202 2.9965109562278487 2 8.6278681747420727 2.8816392304082532 2 15.488705355629 3.5183145299876193 2 30.833427026815265 1.2 2 39.613130074025712 3.0663573621703155 2 43.600885859810951 2.6350493022071899 2 57.913560733939079 3.3712206545957786 2 60.761353439437585 2.6251472733951351 2 65.018283274923519 3.6803758828570352 2 79.965590330342948 4.2910867776659192 2 87.48790229560926 1.7380853805711742 2 89.645591705666931 1.2 2 90.065543760996576 5.6934839264606438 2 98.8 2.5273987145351038 2 10.669446537754828 3.6984916107080164 2 13.089628298013258 3.4851027442146245 2 30.875236686281688 3.5980827393358954 2 41.760723054563599 3.4567376989488809 2 56.620316762439039 1.2 2 58.946218552042396 1.2 2 65.011195698997952 6.07885034957709 2 82.743514377674302 5.6656174592870316 2 85.158917880007948 1.2 2 88.81631629591628 3.5891662639427313 2 91.283132110091969 3.5612529747669712 2 96.886626843195955 1.2 2 </DataArray>
</Points>
<Cells>
<DataArray Name="connectivity" format="ascii" type="Int32">0</DataArray>
<DataArray Name="offsets" format="ascii" type="Int32">0</DataArray>
<DataArray Name="types" format="ascii" type="UInt8">1</DataArray>
</Cells>
<PointData>
<DataArray Name="Points" NumberOfComponents="3" format="ascii" type="Float32">1.2 1.2 2 5.3645018248715202 2.9965109562278487 2 8.6278681747420727 2.8816392304082532 2 15.488705355629 3.5183145299876193 2 30.833427026815265 1.2 2 39.613130074025712 3.0663573621703155 2 43.600885859810951 2.6350493022071899 2 57.913560733939079 3.3712206545957786 2 60.761353439437585 2.6251472733951351 2 65.018283274923519 3.6803758828570352 2 79.965590330342948 4.2910867776659192 2 87.48790229560926 1.7380853805711742 2 89.645591705666931 1.2 2 90.065543760996576 5.6934839264606438 2 98.8 2.5273987145351038 2 10.669446537754828 3.6984916107080164 2 13.089628298013258 3.4851027442146245 2 30.875236686281688 3.5980827393358954 2 41.760723054563599 3.4567376989488809 2 56.620316762439039 1.2 2 58.946218552042396 1.2 2 65.011195698997952 6.07885034957709 2 82.743514377674302 5.6656174592870316 2 85.158917880007948 1.2 2 88.81631629591628 3.5891662639427313 2 91.283132110091969 3.5612529747669712 2 96.886626843195955 1.2 2 </DataArray>
<DataArray Name="forces" NumberOfComponents="3" format="ascii" type="Float32">-0.0017081200492095674 -3.4891195573134356e-05 0.0 0.00017302834821415107 0.0031820970323279902 0.0 0.00040795918866229266 0.0011504859807285675 0.0 -0.0014065376450578572 0.0059334828101586671 0.0 -0.001468059977792198 -0.0034035807628152934 0.0 0.0049014541404982645 0.0054219037790007403 0.0 0.0075879444769564909 -0.0086344753414408625 0.0 -0.00053962194969181 0.0017248557143849891 0.0 0.010509960992934941 0.017198845356433623 0.0 0.0071628477618664622 0.0016384074420602189 0.0 -0.010754842047490491 0.0048218596726806095 0.0 0.072610442560628652 0.027578350992024256 0.0 -0.062202022778542941 -0.0073357372587263287 0.0 0.008220633666845608 0.014420964112331843 0.0 0.040579776917327913 0.02684584096597584 0.0 0.0011009047590487897 0.00044161317101014765 0.0 -0.0016133404798548594 0.0019043668259416209 0.0 0.0004678254349601618 0.0026605725179741097 0.0 -0.012549296410587791 0.0055604815350027929 0.0 -0.0031343589779996017 -0.001880419528470218 0.0 0.011708918054602543 -0.064456434813912111 0.0 1.3868535960017246e-06 0.0022041621433613722 0.0 0.0041524926682530256 0.012303708533833967 0.0 0.0011521015464623502 -0.02209052921702764 0.0 -0.049167719309219704 -0.013667276848132457 0.0 0.040947085642374093 -0.00075368726419938531 0.0 0.039718025214150576 -0.028410314020179583 0.0 </DataArray>
<DataArray Name="radii" format="ascii" type="Float32">1.2 1.2 1 1.2 1.2 1.2 1 1.2 1.2 1.2 1 1.2 1.2 1.2 1.2 1.2 1.2 1.2 1 1.2 1.2 1.2 1.2 1.2 1.2 1.2 1.2 </DataArray>
</PointData>
<CellData/>
</Piece>
</UnstructuredGrid>
</VTKFile>
