<?xml version="1.0" ?>
<VTKFile byte_order="LittleEndian" type="UnstructuredGrid" version="0.1">
<UnstructuredGrid>
<Piece NumberOfCells="0" NumberOfPoints="47">
<Points>
<DataArray NumberOfComponents="3" format="ascii" type="Float32">1.2 1.2 2 5.4282594545315161 4.1707667680678435 2 7.1351520373096076 3.1670982676133774 2 16.815230692537284 4.197021159879518 2 29.846039776271368 4.1735783151358179 2 39.695451656507288 4.7861016142179915 2 42.550888418387437 3.4839243808078248 2 56.083746789969247 6.9962984942348649 2 61.916917086002798 4.6506019358776989 2 63.863770726357409 4.1406184637954331 2 78.531373338806915 5.7009146638650936 2 86.772543249448916 1.5999999999999999 2 89.26640352336652 1.5999999999999999 2 89.416072770058364 10.83101608887727 2 98.4 6.4228122872597737 2 8.7031554956165493 4.8202500073322678 2 13.453906733099725 6.9697167458419349 2 31.202071118413258 6.5872094524934113 2 41.612458239886884 4.8228458470761755 2 56.664350039805583 1.5999999999999999 2 58.886407271387633 1.5999999999999999 2 65.382062019659699 9.9824361682438418 2 83.665054228470794 8.2397653167676417 2 84.55847518851796 1.5999999999999999 2 88.334439186721227 5.5704416735359397 2 90.780263728053086 6.1778166875630749 2 98.4 1.5999999999999999 2 16.536216485787957 7.1729636255628586 2 31.006290338022385 1.5999999999999999 2 57.351344994445917 4.1845230812977681 2 58.710320995657014 6.6256747339664566 2 65.964295728944776 3.650731762660687 2 87.694402951269666 3.5870120869697382 2 90.348790533833025 3.463467818768946 2 88.616780917287883 8.17598412901215 2 96.517175603107162 4.0883247281436148 2 10.335023197039702 7.4729906446706034 2 11.522004765382871 4.6055231623516004 2 33.602094563718602 5.9559182244038755 2 54.399327994384961 1.5999999999999999 2 59.822761193425656 4.0153315594258183 2 64.582887244473383 6.6591438699256837 2 80.50328176833861 7.8129059852127298 2 85.395676362678472 4.3495061039515699 2 86.003480087577387 6.8812429487462898 2 92.366140707002671 3.9315007225593082 2 98.4 3.8345336752219481 2 </DataArray>
</Points>
<Cells>
<DataArray Name="connectivity" format="ascii" type="Int32">0</DataArray>
<DataArray Name="offsets" format="ascii" type="Int32">0</DataArray>
<DataArray Name="types" format="ascii" type="UInt8">1</DataArray>
</Cells>
<PointData>
<DataArray Name="Points" NumberOfComponents="3" format="ascii" type="Float32">1.2 1.2 2 5.4282594545315161 4.1707667680678435 2 7.1351520373096076 3.1670982676133774 2 16.815230692537284 4.197021159879518 2 29.846039776271368 4.1735783151358179 2 39.695451656507288 4.7861016142179915 2 42.550888418387437 3.4839243808078248 2 56.083746789969247 6.9962984942348649 2 61.916917086002798 4.6506019358776989 2 63.863770726357409 4.1406184637954331 2 78.531373338806915 5.7009146638650936 2 86.772543249448916 1.5999999999999999 2 89.26640352336652 1.5999999999999999 2 89.416072770058364 10.83101608887727 2 98.4 6.4228122872597737 2 8.7031554956165493 4.8202500073322678 2 13.453906733099725 6.9697167458419349 2 31.202071118413258 6.5872094524934113 2 41.612458239886884 4.8228458470761755 2 56.664350039805583 1.5999999999999999 2 58.886407271387633 1.5999999999999999 2 65.382062019659699 9.9824361682438418 2 83.665054228470794 8.2397653167676417 2 84.55847518851796 1.5999999999999999 2 88.334439186721227 5.5704416735359397 2 90.780263728053086 6.1778166875630749 2 98.4 1.5999999999999999 2 16.536216485787957 7.1729636255628586 2 31.006290338022385 1.5999999999999999 2 57.351344994445917 4.1845230812977681 2 58.710320995657014 6.6256747339664566 2 65.964295728944776 3.650731762660687 2 87.694402951269666 3.5870120869697382 2 90.348790533833025 3.463467818768946 2 88.616780917287883 8.17598412901215 2 96.517175603107162 4.0883247281436148 2 10.335023197039702 7.4729906446706034 2 11.522004765382871 4.6055231623516004 2 33.602094563718602 5.9559182244038755 2 54.399327994384961 1.5999999999999999 2 59.822761193425656 4.0153315594258183 2 64.582887244473383 6.6591438699256837 2 80.50328176833861 7.8129059852127298 2 85.395676362678472 4.3495061039515699 2 86.003480087577387 6.8812429487462898 2 92.366140707002671 3.9315007225593082 2 98.4 3.8345336752219481 2 </DataArray>
<DataArray Name="forces" NumberOfComponents="3" format="ascii" type="Float32">-0.2856478446824835 0.021885626018510365 0.0 -0.057142506980567304 0.23341506983196683 0.0 -0.20694965181473293 -0.04655349936216549 0.0 0.10732843640132259 0.11611756550263652 0.0 0.066176768942627695 0.24657222578106897 0.0 0.05603894998518634 0.27573548657481367 0.0 -0.16092233703626108 0.085814931354557311 0.0 -0.16143995511939679 0.33710688743466272 0.0 0.0085403363652034325 0.11695719507680191 0.0 0.0195418447242382 0.1476175133919464 0.0 0.028839649883768748 0.30743863362096674 0.0 -0.089433739402931742 -1.0447980433200266 0.0 -0.061596769447601341 -1.2476925347118875 0.0 -0.034078789607391829 0.55869239825424055 0.0 0.92181473588505813 0.34202855638179375 0.0 -0.19889488963799001 0.18959133005996279 0.0 -0.032578648523299253 0.31687860477337981 0.0 0.11338765579287408 0.41178417143016993 0.0 0.06780615515924221 0.30353446066428769 0.0 -0.17108636276633926 -0.54100089484974345 0.0 -0.10004313136022241 -0.75996506727234281 0.0 0.057477940923422455 0.50397481421003465 0.0 -0.20009713606716523 0.76287797847372207 0.0 -0.077990522702945028 -0.85419557117886746 0.0 -0.097340770106011221 0.2765313894339555 0.0 -0.058329371559834142 0.36659925433881196 0.0 1.0224849206657263 -1.050109943635166 0.0 0.099719992678292374 0.22661306909101991 0.0 0.095893244126817323 -0.90581313247157613 0.0 -0.10319300394746178 0.25318893725266717 0.0 -0.12927360819175693 0.46079349027394401 0.0 0.047727755502103668 0.13334445103533041 0.0 -0.14060069032236433 0.16027436807946704 0.0 -0.057625360786410312 0.19419739447253287 0.0 -0.090726098649715162 0.45541341636906879 0.0 -0.040645132034988096 0.24708828213086509 0.0 -0.030459140776549341 0.17964725148228827 0.0 -0.092953110960106902 0.059168749249796385 0.0 0.2575206838214803 0.45612479354221225 0.0 -0.21482065099425235 -0.66102718800237925 0.0 -0.098416710567334142 0.30071443331660597 0.0 -0.053873454142756322 0.37687792236934953 0.0 -0.22426764127757498 0.23018377752864627 0.0 -0.1478507944083772 0.27656596399519462 0.0 -0.13804832501155737 0.47343441679526088 0.0 -0.042669686067454797 0.21065939251950527 0.0 1.3264802439647954 0.21701329489298862 0.0 </DataArray>
<DataArray Name="radii" format="ascii" type="Float32">1.2 1.2 1 1.5999999999999999 1.5999999999999999 1.2 1 1.5999999999999999 1.5999999999999999 1.5999999999999999 1 1.5999999999999999 1.5999999999999999 1.5999999999999999 1.5999999999999999 1.5999999999999999 1.5999999999999999 1.5999999999999999 1 1.5999999999999999 1.5999999999999999 1.5999999999999999 1.5999999999999999 1.5999999999999999 1.5999999999999999 1.5999999999999999 1.5999999999999999 1.5999999999999999 1.5999999999999999 1.5999999999999999 1.5999999999999999 1.5999999999999999 1.5999999999999999 1.5999999999999999 1.5999999999999999 1.5999999999999999 1.5999999999999999 1.5999999999999999 1.5999999999999999 1.5999999999999999 1.5999999999999999 1.5999999999999999 1.5999999999999999 1.5999999999999999 1.5999999999999999 1.5999999999999999 1.5999999999999999 </DataArray>
</PointData>
<CellData/>
</Piece>
</UnstructuredGrid>
</VTKFile>
