<?xml version="1.0" ?>
<VTKFile byte_order="LittleEndian" type="UnstructuredGrid" version="0.1">
<UnstructuredGrid>
<Piece NumberOfCells="0" NumberOfPoints="32">
<Points>
<DataArray NumberOfComponents="3" format="ascii" type="Float32">3.7829529732340732 3.3153697314612125 2 6.784218844593302 1.2000000000000002 2 15.310027166170714 1.2000000000000002 2 18.20759134735157 1.2000000000000002 2 19.958967903199046 1.2000000000000002 2 37.609226070431745 2.6446807414663458 2 38.305315113270098 1.2000000000000002 2 41.602311411200347 2.22854900447062 2 48.807257422825373 2.829455446996763 2 51.123325122810357 1.7529092333445537 2 52.31015106378873 3.6840817532935839 2 65.198204491985805 2.5859946889634777 2 73.880272686579872 2.4239054312735631 2 78.102096753664057 1.2000000000000002 2 79.622629874604527 1.2000000000000002 2 90.860504431615396 1.2000000000000002 2 3.0672783999901263 1.2000000000000002 2 4.9379546982492739 1.2000000000000002 2 16.770547387638231 1.767997316966512 2 18.617587774598562 2.9807807516326492 2 21.94049089410138 1.2000000000000002 2 36.086217348448734 1.2000000000000002 2 39.642768949513702 3.2792482187127114 2 40.226144641340177 1.2000000000000002 2 47.682739130376568 1.2000000000000002 2 49.620197886570082 1.2000000000000002 2 52.416614963142393 1.2000000000000002 2 66.12020056315481 1.2000000000000002 2 75.111890302049488 1.2000000000000002 2 78.301718860748366 3.3321788188706418 2 79.912373306116692 2.9064368908329827 2 91.382428613497922 2.8046179116925876 2 </DataArray>
</Points>
<Cells>
<DataArray Name="connectivity" format="ascii" type="Int32">0</DataArray>
<DataArray Name="offsets" format="ascii" type="Int32">0</DataArray>
<DataArray Name="types" format="ascii" type="UInt8">1</DataArray>
</Cells>
<PointData>
<DataArray Name="Points" NumberOfComponents="3" format="ascii" type="Float32">3.7829529732340732 3.3153697314612125 2 6.784218844593302 1.2000000000000002 2 15.310027166170714 1.2000000000000002 2 18.20759134735157 1.2000000000000002 2 19.958967903199046 1.2000000000000002 2 37.609226070431745 2.6446807414663458 2 38.305315113270098 1.2000000000000002 2 41.602311411200347 2.22854900447062 2 48.807257422825373 2.829455446996763 2 51.123325122810357 1.7529092333445537 2 52.31015106378873 3.6840817532935839 2 65.198204491985805 2.5859946889634777 2 73.880272686579872 2.4239054312735631 2 78.102096753664057 1.2000000000000002 2 79.622629874604527 1.2000000000000002 2 90.860504431615396 1.2000000000000002 2 3.0672783999901263 1.2000000000000002 2 4.9379546982492739 1.2000000000000002 2 16.770547387638231 1.767997316966512 2 18.617587774598562 2.9807807516326492 2 21.94049089410138 1.2000000000000002 2 36.086217348448734 1.2000000000000002 2 39.642768949513702 3.2792482187127114 2 40.226144641340177 1.2000000000000002 2 47.682739130376568 1.2000000000000002 2 49.620197886570082 1.2000000000000002 2 52.416614963142393 1.2000000000000002 2 66.12020056315481 1.2000000000000002 2 75.111890302049488 1.2000000000000002 2 78.301718860748366 3.3321788188706418 2 79.912373306116692 2.9064368908329827 2 91.382428613497922 2.8046179116925876 2 </DataArray>
<DataArray Name="forces" NumberOfComponents="3" format="ascii" type="Float32">-0.066702473329004974 0.10284266265121908 0.0 -0.15872989796134085 -0.28911718591066915 0.0 -0.0034894895641432999 -1.0002614114870376 0.0 0.016688065190510137 -0.87714541940307456 0.0 -0.054090339934254272 -0.79384640715834198 0.0 0.26062513926875508 0.15350741695812392 0.0 0.04813230584808692 -0.71499765747703981 0.0 -0.083140772287096473 0.22081679030963569 0.0 -0.058671047050335878 0.069940285685363313 0.0 -0.046195677828536785 -0.0071665700746949001 0.0 -0.2018030029002007 0.11594975003470781 0.0 0.11043634934937539 0.072513925107497434 0.0 0.20204868296090395 0.12789005566921618 0.0 -0.022274123385747642 -0.47368466475922488 0.0 -0.11334654826747513 -0.76237756606159768 0.0 0.057304966593445306 -1.2412520140203547 0.0 -0.050257519643909287 -0.1609402536521399 0.0 -0.11758544509187785 -0.16943167010350654 0.0 0.00073212270653674749 -0.11120014437333887 0.0 -0.028062527946390359 0.082771565797567392 0.0 -0.089205201854536176 -0.92416910589960033 0.0 0.20253530903166067 -0.75308915538632903 0.0 0.15094610480125192 0.20219974526807499 0.0 -0.0069235180076588493 -0.6437476388828216 0.0 -0.023510384296767051 -0.83080854896786493 0.0 -0.025371581633996942 -0.79626655519676037 0.0 -0.054522532745187979 -0.87574104853758783 0.0 0.027402792080971052 -1.1957497845066158 0.0 0.10515350949631264 -0.63910851802554047 0.0 -0.14244830064193781 0.03424781695953194 0.0 -0.2060325714934097 0.069382197688493741 0.0 -0.078293721019297546 0.10831342925078871 0.0 </DataArray>
<DataArray Name="radii" format="ascii" type="Float32">1.2000000000000002 1.2000000000000002 1.2000000000000002 1.2000000000000002 1.2000000000000002 1.2000000000000002 1.2000000000000002 1.2000000000000002 1.2000000000000002 1.2000000000000002 1.2000000000000002 1.2000000000000002 1.2000000000000002 1.2000000000000002 1.2000000000000002 1.2000000000000002 1.2000000000000002 1.2000000000000002 1.2000000000000002 1.2000000000000002 1.2000000000000002 1.2000000000000002 1.2000000000000002 1.2000000000000002 1.2000000000000002 1.2000000000000002 1.2000000000000002 1.2000000000000002 1.2000000000000002 1.2000000000000002 1.2000000000000002 1.2000000000000002 </DataArray>
</PointData>
<CellData/>
</Piece>
</UnstructuredGrid>
</VTKFile>
