<?xml version="1.0" ?>
<VTKFile byte_order="LittleEndian" type="UnstructuredGrid" version="0.1">
<UnstructuredGrid>
<Piece NumberOfCells="0" NumberOfPoints="62">
<Points>
<DataArray NumberOfComponents="3" format="ascii" type="Float32">0 0 0 9.9748478694774043 1.0649952970053105 2 18.526229083369177 3.9892199306196936 2 22.028706962328435 6.830444706719077 2 24.422872192789846 1 2 26.600683339044252 2.1235553321868603 2 34.58560456400253 4.4557977524419732 2 36.891134100026989 3.7848873149589224 2 45.861036049716546 2.1620756102075385 2 49.197868527962839 5.8894222713946487 2 53.95501893645779 6.3164105205364089 2 62.700134956224751 2.3242847677751874 2 67.692365922079333 4.510033235518911 2 69.911151073621099 4.263614610759503 2 74.836173731161765 5.5071030373396237 2 76.066009732503019 3.1192254020317907 2 82.245062316698622 4.2767167598176625 2 93.608427140664915 4.9011694774748227 2 95.997986083356665 1.7160654889382363 2 14.09456320035156 2.856060536162456 2 22.658402164077291 4.9781514946364913 2 25.098218198969114 4.8708668719404145 2 28.391115364965682 4.0034177901898671 2 33.501088287908182 1.1805880086680707 2 44.826786030066486 4.1855120353770516 2 47.241928176186811 3.5996820980187922 2 54.196885168617385 4.3306900319151991 2 62.776137310110094 6.8061770684643177 2 68.319506319479615 2.4723188848830717 2 70.231856673368384 2.3980686617277667 2 71.935183396442625 4.3132066239207596 2 75.780075832865563 1 2 82.880279364566391 1 2 93.552039148920457 6.984576770084459 2 95.792541212950255 5.0441508019681223 2 11.668132519356561 2.1241904692194562 2 24.821481452126349 2.9477262029245059 2 28.110646977787244 1 2 34.800229799721812 6.4440546366891143 2 44.247495518475851 1 2 61.299805504000659 1 2 66.526204694453256 6.1343569999490191 2 69.089655643930058 6.0265333170464235 2 76.811902148308008 5.49594808778975 2 80.327428994895428 3.7570244795917223 2 94.806689573998327 3.3054807091209821 2 94.057613447324101 1.3590647689949229 2 13.317665231195349 1 2 22.964963505364384 3.0802849241959409 2 26.766474953970921 5.9498013345373719 2 28.752732118635951 5.9717913088445513 2 31.994253823222483 2.3888963578905305 2 44.576678110596838 6.1698157241332652 2 49.21903179119866 3.8898244275205598 2 55.795943172284176 3.1308340208008327 2 61.146078201408415 5.68283095272362 2 67.090293495215064 1 2 71.377430281730241 1 2 73.859308072125017 3.7990490639711951 2 83.755079235721468 2.7870694222549179 2 91.557367548465237 6.7852503772922139 2 96.7470442942451 6.7988376444060954 2 </DataArray>
</Points>
<Cells>
<DataArray Name="connectivity" format="ascii" type="Int32">0</DataArray>
<DataArray Name="offsets" format="ascii" type="Int32">0</DataArray>
<DataArray Name="types" format="ascii" type="UInt8">1</DataArray>
</Cells>
<PointData>
<DataArray Name="Points" NumberOfComponents="3" format="ascii" type="Float32">0 0 0 9.9748478694774043 1.0649952970053105 2 18.526229083369177 3.9892199306196936 2 22.028706962328435 6.830444706719077 2 24.422872192789846 1 2 26.600683339044252 2.1235553321868603 2 34.58560456400253 4.4557977524419732 2 36.891134100026989 3.7848873149589224 2 45.861036049716546 2.1620756102075385 2 49.197868527962839 5.8894222713946487 2 53.95501893645779 6.3164105205364089 2 62.700134956224751 2.3242847677751874 2 67.692365922079333 4.510033235518911 2 69.911151073621099 4.263614610759503 2 74.836173731161765 5.5071030373396237 2 76.066009732503019 3.1192254020317907 2 82.245062316698622 4.2767167598176625 2 93.608427140664915 4.9011694774748227 2 95.997986083356665 1.7160654889382363 2 14.09456320035156 2.856060536162456 2 22.658402164077291 4.9781514946364913 2 25.098218198969114 4.8708668719404145 2 28.391115364965682 4.0034177901898671 2 33.501088287908182 1.1805880086680707 2 44.826786030066486 4.1855120353770516 2 47.241928176186811 3.5996820980187922 2 54.196885168617385 4.3306900319151991 2 62.776137310110094 6.8061770684643177 2 68.319506319479615 2.4723188848830717 2 70.231856673368384 2.3980686617277667 2 71.935183396442625 4.3132066239207596 2 75.780075832865563 1 2 82.880279364566391 1 2 93.552039148920457 6.984576770084459 2 95.792541212950255 5.0441508019681223 2 11.668132519356561 2.1241904692194562 2 24.821481452126349 2.9477262029245059 2 28.110646977787244 1 2 34.800229799721812 6.4440546366891143 2 44.247495518475851 1 2 61.299805504000659 1 2 66.526204694453256 6.1343569999490191 2 69.089655643930058 6.0265333170464235 2 76.811902148308008 5.49594808778975 2 80.327428994895428 3.7570244795917223 2 94.806689573998327 3.3054807091209821 2 94.057613447324101 1.3590647689949229 2 13.317665231195349 1 2 22.964963505364384 3.0802849241959409 2 26.766474953970921 5.9498013345373719 2 28.752732118635951 5.9717913088445513 2 31.994253823222483 2.3888963578905305 2 44.576678110596838 6.1698157241332652 2 49.21903179119866 3.8898244275205598 2 55.795943172284176 3.1308340208008327 2 61.146078201408415 5.68283095272362 2 67.090293495215064 1 2 71.377430281730241 1 2 73.859308072125017 3.7990490639711951 2 83.755079235721468 2.7870694222549179 2 91.557367548465237 6.7852503772922139 2 96.7470442942451 6.7988376444060954 2 </DataArray>
<DataArray Name="forces" NumberOfComponents="3" format="ascii" type="Float32">0 0 0 -0.0029537888435601178 -0.0018499689829787967 0.0 -0.00027786945357979653 0.0038440238916227125 0.0 -0.013994055385926935 0.041737631011189429 0.0 -0.0083556126429379218 -0.036149329011627505 0.0 0.12887282711227177 -0.0520369295852494 0.0 0.0020175012321202159 -0.00012816014844521553 0.0 0.0 0.0 0.0 0.0063289903954886068 0.0027438558075645065 0.0 -9.2029090101210762e-07 9.6463982998262949e-05 0.0 0.0 0.0 0.0 -0.0097623548315170436 0.045100396640142024 0.0 0.007271435303623822 0.0030292277116888353 0.0 0.0037878666644111346 0.059931756331436201 0.0 -0.0092557375130833779 0.030913708451401324 0.0 -0.001719013950352495 0.0013781516888605524 0.0 0.014863719699273052 0.0032418878680096058 0.0 0.043399250233921605 0.04578030041409379 0.0 -0.00048868294194967174 0.0049238869822821364 0.0 -0.030081013770496778 0.023269608923702858 0.0 0.0011796672145499999 0.046004230372571141 0.0 -0.024700628677261048 0.013402987260115455 0.0 -0.0019359633739216629 -0.010670188252145179 0.0 -0.071207763809328611 -0.0065945154357092703 0.0 0.0 0.0 0.0 -0.0029055296105984117 0.016557186268472385 0.0 -0.0015909981389500346 0.0011924815945360339 0.0 0.004109723147399367 0.011666130600829243 0.0 -0.030035435747581218 0.07432568651707229 0.0 -0.018959687806737319 0.042407337478992418 0.0 -0.0088035092647989165 0.0023977838803329685 0.0 0.019625910236839211 -0.073418575663953919 0.0 0.19203028011800452 -0.0354276566631034 0.0 0.0 0.0 0.0 0.0024501810789044789 0.0043373322671133195 0.0 -0.00058075816597697718 -0.0028895575034310911 0.0 -0.091779281493869297 0.070108080933836581 0.0 -0.035864591940372073 -0.018685815540897623 0.0 3.2848705472024244e-05 0.00030281309615446631 0.0 -0.0017480679706286112 -0.029143199746038496 0.0 0.027268953300119574 -0.049813015203653541 0.0 0.0024304216337913643 0.0013331175347716922 0.0 -0.023894519589310343 0.052310719724711449 0.0 -0.0039189965652721287 0.011606174771412542 0.0 0.010558212261744552 0.0039467222545093482 0.0 -0.0063822316700837076 0.0011710619275275887 0.0 0.010065727474026915 -0.0045205985293632622 0.0 0.003206373922088758 -0.0021931995125050304 0.0 0.059458851956292462 0.033324968220937279 0.0 0.020057702090312809 0.018653540398986729 0.0 0.010562550069977255 0.0107832126269841 0.0 0.096258978741494028 -0.049994902454340753 0.0 0.0 0.0 0.0 0.0040020349293421117 0.00050871825379732454 0.0 -0.0010557241021244468 -0.0017692546417941431 0.0 -0.0057929788761918021 0.047858910808733758 0.0 0.015862583885143416 -0.08523747805121841 0.0 -0.029190370028634671 -0.19126367234553279 0.0 -0.0026122855447039683 0.019742030430563329 0.0 0.0 0.0 0.0 0.0 0.0 0.0 0.0 0.0 0.0 </DataArray>
<DataArray Name="radii" format="ascii" type="Float32">0 1 1.2 1 1 1 1 1.2 1 1 1 1 1 1 1 1 1 1 1 1 1 1 1 1 1 1 1 1 1 1 1 1 1 1 1 1 1 1 1 1 1 1 1 1 1 1 1 1 1 1 1 1 1 1 1 1 1 1 1 1 1 1 </DataArray>
</PointData>
<CellData/>
</Piece>
</UnstructuredGrid>
</VTKFile>
