<?xml version="1.0" ?>
<VTKFile byte_order="LittleEndian" type="UnstructuredGrid" version="0.1">
<UnstructuredGrid>
<Piece NumberOfCells="0" NumberOfPoints="32">
<Points>
<DataArray NumberOfComponents="3" format="ascii" type="Float32">3.7922821313394279 3.2186856715746335 2 6.9477657943243623 1.1500000000000001 2 15.220077624881343 1.1500000000000001 2 18.22429306079226 1.1500000000000001 2 20.06053565154907 1.1500000000000001 2 37.327180557973001 2.5391599238485409 2 38.297522373095525 1.1500000000000001 2 41.844626569044806 2.0589259438183705 2 48.824551096075837 2.8328151241760748 2 51.15934491640644 1.8794607176987401 2 52.469460689309386 3.6182531511291076 2 65.02278741985414 2.5654303267516227 2 73.65048647512026 2.3747351288381857 2 78.150510870524542 1.1500000000000001 2 79.823832946036418 1.1500000000000001 2 90.693133848954815 1.1500000000000001 2 3.1287869353239479 1.1500000000000001 2 5.0478214953172316 1.1500000000000001 2 16.717266017819032 1.9989630228197608 2 18.651953281529249 3.0237968373393413 2 22.056203132341697 1.1500000000000001 2 35.767222107832453 1.1500000000000001 2 39.446980893629799 3.1355862019870364 2 40.252044613600631 1.1500000000000001 2 47.632451241582132 1.1500000000000001 2 49.619035574393322 1.1500000000000001 2 52.563192835789174 1.1500000000000001 2 66.12744157737842 1.1500000000000001 2 74.940921788056542 1.1500000000000001 2 78.468336317321061 3.3596026603900544 2 80.168118974734966 2.9171636413706556 2 91.478484821462061 2.742755457988959 2 </DataArray>
</Points>
<Cells>
<DataArray Name="connectivity" format="ascii" type="Int32">0</DataArray>
<DataArray Name="offsets" format="ascii" type="Int32">0</DataArray>
<DataArray Name="types" format="ascii" type="UInt8">1</DataArray>
</Cells>
<PointData>
<DataArray Name="Points" NumberOfComponents="3" format="ascii" type="Float32">3.7922821313394279 3.2186856715746335 2 6.9477657943243623 1.1500000000000001 2 15.220077624881343 1.1500000000000001 2 18.22429306079226 1.1500000000000001 2 20.06053565154907 1.1500000000000001 2 37.327180557973001 2.5391599238485409 2 38.297522373095525 1.1500000000000001 2 41.844626569044806 2.0589259438183705 2 48.824551096075837 2.8328151241760748 2 51.15934491640644 1.8794607176987401 2 52.469460689309386 3.6182531511291076 2 65.02278741985414 2.5654303267516227 2 73.65048647512026 2.3747351288381857 2 78.150510870524542 1.1500000000000001 2 79.823832946036418 1.1500000000000001 2 90.693133848954815 1.1500000000000001 2 3.1287869353239479 1.1500000000000001 2 5.0478214953172316 1.1500000000000001 2 16.717266017819032 1.9989630228197608 2 18.651953281529249 3.0237968373393413 2 22.056203132341697 1.1500000000000001 2 35.767222107832453 1.1500000000000001 2 39.446980893629799 3.1355862019870364 2 40.252044613600631 1.1500000000000001 2 47.632451241582132 1.1500000000000001 2 49.619035574393322 1.1500000000000001 2 52.563192835789174 1.1500000000000001 2 66.12744157737842 1.1500000000000001 2 74.940921788056542 1.1500000000000001 2 78.468336317321061 3.3596026603900544 2 80.168118974734966 2.9171636413706556 2 91.478484821462061 2.742755457988959 2 </DataArray>
<DataArray Name="forces" NumberOfComponents="3" format="ascii" type="Float32">-0.00045642799357774322 0.085427739382822554 0.0 -0.029443358068565739 -0.22930042338594056 0.0 -0.044245639468155656 -0.73697813183323868 0.0 -0.05103845978194492 -0.6532964608628351 0.0 -0.054750238529368472 -0.38392540244754331 0.0 0.12773097337674022 0.12042498587805538 0.0 -0.0009341061959037833 -0.50667324426615523 0.0 -0.043807022744513216 0.13904615256284691 0.0 -0.049808937591682478 0.075053724926428672 0.0 -0.032450700403865995 0.058096301775621084 0.0 -0.10053453286701708 0.093410279970055909 0.0 0.01547996880944924 0.039737923007965172 0.0 0.05714464716347667 0.1120409558849953 0.0 -0.03362729019090429 -0.1263705795756486 0.0 -0.095267705933678559 -0.60962008612485141 0.0 0.019045825292684615 -1.0004642422833288 0.0 0.00063123061574366091 -0.13808087189905596 0.0 -0.020226447968972217 0.0 0.0 -0.030531714432079984 0.050661398676458511 0.0 -0.0080404548449005096 0.073184600910757514 0.0 -0.055376582669072472 -0.4205357035396094 0.0 0.13115693050892269 -0.38493527786945991 0.0 0.079895830830000236 0.081764798494332325 0.0 -0.0023061622690721192 -0.37753549209169834 0.0 -0.028706298205991951 -0.45691984369562183 0.0 -0.038248452488684304 -0.65663881863572893 0.0 -0.0037591524110607011 -0.59194959438751238 0.0 -0.024195008369667648 -0.64682086500610991 0.0 0.042867349825933904 -0.31530339043315569 0.0 -0.017448894610733845 -0.0036334271388286377 0.0 -0.0086851042247649834 0.056504907163505841 0.0 -0.069162653763750803 0.14357288106996546 0.0 </DataArray>
<DataArray Name="radii" format="ascii" type="Float32">1.1500000000000001 1.1500000000000001 1.1500000000000001 1.1500000000000001 1.1500000000000001 1.1500000000000001 1.1500000000000001 1.1500000000000001 1.1500000000000001 1.1500000000000001 1.1500000000000001 1.1500000000000001 1.1500000000000001 1.1500000000000001 1.1500000000000001 1.1500000000000001 1.1500000000000001 1.1500000000000001 1.1500000000000001 1.1500000000000001 1.1500000000000001 1.1500000000000001 1.1500000000000001 1.1500000000000001 1.1500000000000001 1.1500000000000001 1.1500000000000001 1.1500000000000001 1.1500000000000001 1.1500000000000001 1.1500000000000001 1.1500000000000001 </DataArray>
</PointData>
<CellData/>
</Piece>
</UnstructuredGrid>
</VTKFile>
