<?xml version="1.0" ?>
<VTKFile byte_order="LittleEndian" type="UnstructuredGrid" version="0.1">
<UnstructuredGrid>
<Piece NumberOfCells="0" NumberOfPoints="64">
<Points>
<DataArray NumberOfComponents="3" format="ascii" type="Float32">1.9895703362899666 3.4419841757615433 2 6.2772177407525485 1.1921606223414738 2 15.623861573237349 1.8057898806201858 2 17.93958122394999 1 2 19.359970695132464 1 2 38.315848499817228 2.9779984428891533 2 38.549907307269159 1 2 40.997822967479038 2.787796619161742 2 48.121908992981282 3.6486468994021051 2 50.649050307020175 1.4680361450707509 2 51.5264623031971 4.0410693598606695 2 64.958423988819945 2.9592565774454509 2 74.490457658137714 2.731743188977056 2 77.894280927070596 1 2 79.197404047610831 1 2 91.215638885670501 1.2723839889728059 2 2.558526303701385 1.412202980034849 2 4.5246179108865228 1.4772348820798584 2 17.132474048148289 1.4023939800531107 2 17.732027264331329 3.0212689652699276 2 21.511394784334467 1 2 37.562933703582658 1.2346225222003651 2 40.027529281924181 3.6453862854624375 2 40.194650883894347 1.0087552783025593 2 48.102768484121881 1 2 49.069152305972011 1 2 51.390918152288286 1 2 66.082995804834312 1.4209119705329132 2 75.468041577775026 1.6803023233063379 2 77.59962822280184 3.6276619596385884 2 79.424497838241876 2.8724818431670611 2 90.937307551896282 2.7518518169540656 2 2.8454986717831408 4.5945117751660982 2 6.0524191003686871 2.5816951610561394 2 14.158463373432427 1 2 18.623491742956983 1.5414791247857869 2 20.201998032598045 1 2 39.391232655326625 2.638689750892131 2 39.460996450156401 1.6601644295095772 2 41.432613931238421 4.1338173704863346 2 49.325874434267043 3.8710575680772341 2 49.93649712816179 1 2 51.812078528431407 2.6111351067644595 2 63.970016105858051 2.6277687893958306 2 73.807353164253669 2.8288780730437071 2 76.975539294183051 1 2 78.57227826558001 1.5204970547187218 2 90.023962267427549 2.3216380842522355 2 3.551695189896126 1.5387142723310387 2 5.349478157047602 1 2 16.391437290439853 1 2 18.372972584606842 4.0523813002015503 2 20.688037203453089 1.520758146478705 2 37.439217859048192 2.4790717976150116 2 39.02863861037801 4.1767283134236397 2 41.050108279324895 1 2 47.229434920591082 1 2 48.532802385536634 2.222393938606674 2 52.1871933673456 1.0474081320353255 2 65.454433546784344 1 2 75.13564778693214 1 2 78.580989738981202 2.6999631851186878 2 78.61741558754737 3.8690293325558209 2 90.753161949595864 3.6268376501520012 2 </DataArray>
</Points>
<Cells>
<DataArray Name="connectivity" format="ascii" type="Int32">0</DataArray>
<DataArray Name="offsets" format="ascii" type="Int32">0</DataArray>
<DataArray Name="types" format="ascii" type="UInt8">1</DataArray>
</Cells>
<PointData>
<DataArray Name="Points" NumberOfComponents="3" format="ascii" type="Float32">1.9895703362899666 3.4419841757615433 2 6.2772177407525485 1.1921606223414738 2 15.623861573237349 1.8057898806201858 2 17.93958122394999 1 2 19.359970695132464 1 2 38.315848499817228 2.9779984428891533 2 38.549907307269159 1 2 40.997822967479038 2.787796619161742 2 48.121908992981282 3.6486468994021051 2 50.649050307020175 1.4680361450707509 2 51.5264623031971 4.0410693598606695 2 64.958423988819945 2.9592565774454509 2 74.490457658137714 2.731743188977056 2 77.894280927070596 1 2 79.197404047610831 1 2 91.215638885670501 1.2723839889728059 2 2.558526303701385 1.412202980034849 2 4.5246179108865228 1.4772348820798584 2 17.132474048148289 1.4023939800531107 2 17.732027264331329 3.0212689652699276 2 21.511394784334467 1 2 37.562933703582658 1.2346225222003651 2 40.027529281924181 3.6453862854624375 2 40.194650883894347 1.0087552783025593 2 48.102768484121881 1 2 49.069152305972011 1 2 51.390918152288286 1 2 66.082995804834312 1.4209119705329132 2 75.468041577775026 1.6803023233063379 2 77.59962822280184 3.6276619596385884 2 79.424497838241876 2.8724818431670611 2 90.937307551896282 2.7518518169540656 2 2.8454986717831408 4.5945117751660982 2 6.0524191003686871 2.5816951610561394 2 14.158463373432427 1 2 18.623491742956983 1.5414791247857869 2 20.201998032598045 1 2 39.391232655326625 2.638689750892131 2 39.460996450156401 1.6601644295095772 2 41.432613931238421 4.1338173704863346 2 49.325874434267043 3.8710575680772341 2 49.93649712816179 1 2 51.812078528431407 2.6111351067644595 2 63.970016105858051 2.6277687893958306 2 73.807353164253669 2.8288780730437071 2 76.975539294183051 1 2 78.57227826558001 1.5204970547187218 2 90.023962267427549 2.3216380842522355 2 3.551695189896126 1.5387142723310387 2 5.349478157047602 1 2 16.391437290439853 1 2 18.372972584606842 4.0523813002015503 2 20.688037203453089 1.520758146478705 2 37.439217859048192 2.4790717976150116 2 39.02863861037801 4.1767283134236397 2 41.050108279324895 1 2 47.229434920591082 1 2 48.532802385536634 2.222393938606674 2 52.1871933673456 1.0474081320353255 2 65.454433546784344 1 2 75.13564778693214 1 2 78.580989738981202 2.6999631851186878 2 78.61741558754737 3.8690293325558209 2 90.753161949595864 3.6268376501520012 2 </DataArray>
<DataArray Name="forces" NumberOfComponents="3" format="ascii" type="Float32">-0.34681227128900138 -0.46261905270778497 0.0 0.1476672075690002 -0.45846965924446137 0.0 -0.12092236098154863 0.25660645806801974 0.0 -0.20593514044470584 -1.5731462873881474 0.0 -0.11013736221185422 -1.479540267712387 0.0 -0.086836865850532907 -0.050453750153627297 0.0 -0.072967131192948467 -1.0185141041540864 0.0 -0.37733309229979994 -0.15394930608402654 0.0 -0.17595453462551983 0.24424310289672529 0.0 0.025250622046855631 0.043689946727606788 0.0 0.012799852994248854 -0.057220509034139333 0.0 -0.12715526092822477 -0.10985918932143757 0.0 0.16886276282199703 0.25783547019002362 0.0 0.016060976800907026 -1.7453041776876601 0.0 0.00019821460400182289 -1.6648638700650098 0.0 0.22079296387940317 -0.75320771672842013 0.0 -0.2176689745196807 -0.0039586501076831759 0.0 -0.073953421387081053 0.15251518806381592 0.0 -0.028941953334956666 -0.19563311759527582 0.0 0.0059322616631032332 -0.079730305765695897 0.0 0.088059307484472715 -1.6024419804664931 0.0 0.26166343615621546 -0.44223746848800755 0.0 0.068852461998550329 -0.027765405205325888 0.0 -0.24281134606944588 -1.0468436210453851 0.0 -0.033473011735585229 -1.0420761525666187 0.0 -0.072032638782631067 -1.0649997689656205 0.0 -0.24219189419514198 -1.0096798930045663 0.0 0.0090890523892451225 -0.08748765786186552 0.0 0.22439743675276308 0.27051343034613695 0.0 -0.14731738456311594 0.2627141886493205 0.0 -0.04126551769691722 0.043921123187283362 0.0 -0.018956203133831728 -0.22876806471526967 0.0 -0.24663127258044637 0.022281283354363121 0.0 -0.32147817081404928 -0.034378978997217119 0.0 -0.28534347849872699 -1.4949389703778977 0.0 -0.14243331110378687 -0.24020245977529597 0.0 -0.17854312151131832 -1.6537496271024414 0.0 0.06996757889242014 -0.051819693464034422 0.0 -0.13498923432279825 0.048557543327988464 0.0 0.10504687026966475 -0.083672773955638546 0.0 -0.19813635161736615 0.15955239536102717 0.0 -0.030764679338342898 -1.1964547884500927 0.0 0.013414375031691628 -0.55555854459950593 0.0 -0.072411956837352243 0.027217500359516311 0.0 0.034181876389608234 0.01885404927994961 0.0 0.16779348322679571 -1.3432342504872539 0.0 0.15257919919238283 -0.12557597584084179 0.0 0.14198309964163469 0.082549967402977542 0.0 -0.26037678936460978 -0.11876283462916046 0.0 -0.13760274137726997 -1.0316149816517752 0.0 -0.13490865814576058 -1.4625423905640234 0.0 -0.51975201524197656 0.43267853549212942 0.0 0.18118795416025577 0.057387860547333323 0.0 0.023803423352491221 -0.082876929157444879 0.0 -0.026690027063397945 -0.12234274165659226 0.0 0.23309418972783136 -1.2189795471059566 0.0 -0.14312561689863884 -1.0900527554830752 0.0 -0.12600195111137125 0.041365440142018539 0.0 -0.079063818623789139 -0.6071586614233857 0.0 -0.062264461112735203 -1.7181892440391924 0.0 0.032530404642049135 -1.8320112029012903 0.0 -0.065918405126749957 0.057101357833269972 0.0 -0.25003329980594635 0.10043673001603226 0.0 -0.01204820312378857 0.015215349500271036 0.0 </DataArray>
<DataArray Name="radii" format="ascii" type="Float32">1 1 1 1 1 1 1 1 1 1 1 1 1 1 1 1 1 1 1 1 1 1 1 1 1 1 1 1 1 1 1 1 1 1 1 1 1 1 1 1 1 1 1 1 1 1 1 1 1 1 1 1 1 1 1 1 1 1 1 1 1 1 1 1 </DataArray>
</PointData>
<CellData/>
</Piece>
</UnstructuredGrid>
</VTKFile>
