<?xml version="1.0" ?>
<VTKFile byte_order="LittleEndian" type="UnstructuredGrid" version="0.1">
<UnstructuredGrid>
<Piece NumberOfCells="0" NumberOfPoints="16">
<Points>
<DataArray NumberOfComponents="3" format="ascii" type="Float32">3.7188341936886622 1.3500000000000003 2 6.7448788133354256 1.3500000000000003 2 16.598234222253595 1.3500000000000003 2 19.069813807100434 1.3500000000000003 2 21.568048459441442 1.3500000000000003 2 35.718245447982831 1.3500000000000003 2 38.23690197604077 1.3500000000000003 2 41.240200732246528 1.3500000000000003 2 49.196925477991691 1.3500000000000003 2 51.618242993761271 1.3500000000000003 2 53.979282781502043 1.3500000000000003 2 65.278323862955659 1.3500000000000003 2 73.628796929983324 1.3500000000000003 2 77.799478030653361 1.3500000000000003 2 80.057501574692793 1.3500000000000003 2 92.358428435381398 1.3500000000000003 2 </DataArray>
</Points>
<Cells>
<DataArray Name="connectivity" format="ascii" type="Int32">0</DataArray>
<DataArray Name="offsets" format="ascii" type="Int32">0</DataArray>
<DataArray Name="types" format="ascii" type="UInt8">1</DataArray>
</Cells>
<PointData>
<DataArray Name="Points" NumberOfComponents="3" format="ascii" type="Float32">3.7188341936886622 1.3500000000000003 2 6.7448788133354256 1.3500000000000003 2 16.598234222253595 1.3500000000000003 2 19.069813807100434 1.3500000000000003 2 21.568048459441442 1.3500000000000003 2 35.718245447982831 1.3500000000000003 2 38.23690197604077 1.3500000000000003 2 41.240200732246528 1.3500000000000003 2 49.196925477991691 1.3500000000000003 2 51.618242993761271 1.3500000000000003 2 53.979282781502043 1.3500000000000003 2 65.278323862955659 1.3500000000000003 2 73.628796929983324 1.3500000000000003 2 77.799478030653361 1.3500000000000003 2 80.057501574692793 1.3500000000000003 2 92.358428435381398 1.3500000000000003 2 </DataArray>
<DataArray Name="forces" NumberOfComponents="3" format="ascii" type="Float32">0.016516748034197035 -0.014310610979003966 0.0 -0.07461731381815094 -0.15367166066327845 0.0 -0.0060925262749318143 -0.085772887238671075 0.0 0.041706421928654869 -0.07491143690346988 0.0 0.093819956690402231 -0.28710909981852323 0.0 0.087858586330615385 -0.14636496650298253 0.0 0.10600982706619415 -0.11106550215741222 0.0 -0.038224527365911101 -0.025027925591465355 0.0 -0.11315016356136146 -0.23800063175603067 0.0 -0.058455895813366965 0.0 0.0 -0.016290623590602238 -0.19170207985038318 0.0 -0.011070632501698707 -0.38304986764359272 0.0 0.0061277660964965674 0.016583650492229433 0.0 -0.040081180559020074 -0.13783823952156327 0.0 -0.059383159728821799 -0.051164407418689155 0.0 0.093013464889699249 -0.20703615585263535 0.0 </DataArray>
<DataArray Name="radii" format="ascii" type="Float32">1.3500000000000003 1.3500000000000003 1.3500000000000003 1.3500000000000003 1.3500000000000003 1.3500000000000003 1.3500000000000003 1.3500000000000003 1.3500000000000003 1.3500000000000003 1.3500000000000003 1.3500000000000003 1.3500000000000003 1.3500000000000003 1.3500000000000003 1.3500000000000003 </DataArray>
</PointData>
<CellData/>
</Piece>
</UnstructuredGrid>
</VTKFile>
