<?xml version="1.0" ?>
<VTKFile byte_order="LittleEndian" type="UnstructuredGrid" version="0.1">
<UnstructuredGrid>
<Piece NumberOfCells="0" NumberOfPoints="64">
<Points>
<DataArray NumberOfComponents="3" format="ascii" type="Float32">11.146960608605839 6.7195329200108862 2 22.76418245059946 2.65497687563282 2 44.404056513685518 4.5698384796400591 2 76.629334742110487 1.4 2 10.473775143607027 5.1389566950979617 2 22.220896077076972 3.7867477732776949 2 41.868722433619183 4.938578099819436 2 77.511957198246208 7.1137249214879885 2 16.331336397614805 3.7219088503943731 2 26.994120372257349 1.4 2 42.729647754468139 7.6435512019380676 2 77.719073195430283 1.4 2 11.970728075444509 1.4 2 23.359944634897481 9.4141139450406435 2 44.870205972473798 1.4 2 75.636884981739229 5.6738270952635661 2 13.462284572924849 7.6227436529107893 2 25.157823878470776 1.4 2 44.849911851840766 3.1870693498962921 2 73.63137833956165 1.4 2 9.3448391419472099 4.2253460840859738 2 24.191643229219732 4.1543680383373207 2 43.187791938800913 3.9472202978704374 2 79.340570003793815 8.7243696888640265 2 15.68676070416844 4.861284070398292 2 27.958585268959755 1.4 2 46.439747344166385 8.302628258254142 2 76.109956195080386 3.0319489201982988 2 10.604212439491086 3.4395353605935135 2 26.693166347552435 6.8958526122998265 2 45.824771066674053 1.4 2 74.158934885976464 3.3877957853652805 2 11.892685108446438 9.0044975304372095 2 23.386574002198721 1.4 2 43.249442280801254 5.6413302706515269 2 74.878787181714273 2.1786869201970465 2 8.9448548464064466 6.1847052638402404 2 22.272741098300759 5.9230489359643377 2 41.437325094507486 6.41979671940787 2 76.924340641593432 9.2995757813134592 2 17.176369017261603 5.1523990170963421 2 26.021066357984633 1.4 2 44.585169698697385 6.9539027947863747 2 77.320215041944209 2.273838479016598 2 11.436875356308674 2.117507996369036 2 22.755333406169321 7.511658954935899 2 43.947119186155234 1.4 2 75.54826176092925 7.4059751558699514 2 15.416444094550268 8.7901225777365717 2 24.341759939995399 1.4 2 45.969405943927832 2.5122872865006083 2 72.606411972715463 1.4 2 8.0636250829507361 4.01567272819082 2 24.078831738218717 2.7610096083430524 2 43.713113814577277 2.6467369297052836 2 80.761887351860508 7.0095675908601525 2 15.077509550038517 6.5102405132768686 2 28.219207102649218 2.7924072146438039 2 44.333384413553894 9.2735718111735803 2 78.16342175513978 3.4039956664328148 2 11.714841702985092 4.1005554817208232 2 25.439821105684402 8.2736604817285109 2 46.810156239276509 1.4 2 75.495452638313125 3.9992047032838318 2 </DataArray>
</Points>
<Cells>
<DataArray Name="connectivity" format="ascii" type="Int32">0</DataArray>
<DataArray Name="offsets" format="ascii" type="Int32">0</DataArray>
<DataArray Name="types" format="ascii" type="UInt8">1</DataArray>
</Cells>
<PointData>
<DataArray Name="Points" NumberOfComponents="3" format="ascii" type="Float32">11.146960608605839 6.7195329200108862 2 22.76418245059946 2.65497687563282 2 44.404056513685518 4.5698384796400591 2 76.629334742110487 1.4 2 10.473775143607027 5.1389566950979617 2 22.220896077076972 3.7867477732776949 2 41.868722433619183 4.938578099819436 2 77.511957198246208 7.1137249214879885 2 16.331336397614805 3.7219088503943731 2 26.994120372257349 1.4 2 42.729647754468139 7.6435512019380676 2 77.719073195430283 1.4 2 11.970728075444509 1.4 2 23.359944634897481 9.4141139450406435 2 44.870205972473798 1.4 2 75.636884981739229 5.6738270952635661 2 13.462284572924849 7.6227436529107893 2 25.157823878470776 1.4 2 44.849911851840766 3.1870693498962921 2 73.63137833956165 1.4 2 9.3448391419472099 4.2253460840859738 2 24.191643229219732 4.1543680383373207 2 43.187791938800913 3.9472202978704374 2 79.340570003793815 8.7243696888640265 2 15.68676070416844 4.861284070398292 2 27.958585268959755 1.4 2 46.439747344166385 8.302628258254142 2 76.109956195080386 3.0319489201982988 2 10.604212439491086 3.4395353605935135 2 26.693166347552435 6.8958526122998265 2 45.824771066674053 1.4 2 74.158934885976464 3.3877957853652805 2 11.892685108446438 9.0044975304372095 2 23.386574002198721 1.4 2 43.249442280801254 5.6413302706515269 2 74.878787181714273 2.1786869201970465 2 8.9448548464064466 6.1847052638402404 2 22.272741098300759 5.9230489359643377 2 41.437325094507486 6.41979671940787 2 76.924340641593432 9.2995757813134592 2 17.176369017261603 5.1523990170963421 2 26.021066357984633 1.4 2 44.585169698697385 6.9539027947863747 2 77.320215041944209 2.273838479016598 2 11.436875356308674 2.117507996369036 2 22.755333406169321 7.511658954935899 2 43.947119186155234 1.4 2 75.54826176092925 7.4059751558699514 2 15.416444094550268 8.7901225777365717 2 24.341759939995399 1.4 2 45.969405943927832 2.5122872865006083 2 72.606411972715463 1.4 2 8.0636250829507361 4.01567272819082 2 24.078831738218717 2.7610096083430524 2 43.713113814577277 2.6467369297052836 2 80.761887351860508 7.0095675908601525 2 15.077509550038517 6.5102405132768686 2 28.219207102649218 2.7924072146438039 2 44.333384413553894 9.2735718111735803 2 78.16342175513978 3.4039956664328148 2 11.714841702985092 4.1005554817208232 2 25.439821105684402 8.2736604817285109 2 46.810156239276509 1.4 2 75.495452638313125 3.9992047032838318 2 </DataArray>
<DataArray Name="forces" NumberOfComponents="3" format="ascii" type="Float32">-0.0296683809438303 0.921503301275022 0.0 0.038831882796579092 1.1299685835620314 0.0 0.0031451929192197678 1.1359920211503647 0.0 -0.1068823055841597 -3.0805908363884105 0.0 -0.093919686946005276 1.0585813492898566 0.0 0.036517206932270008 1.1512018832049786 0.0 0.07708269178427965 1.2763084256576662 0.0 0.06216344462679424 1.0383345645187019 0.0 -0.045572582215283861 1.07002699845291 0.0 0.11921169057442188 -3.1403801959200464 0.0 -0.092521543516546123 0.87349945378155036 0.0 -0.13261018978987882 -2.9796589899672608 0.0 0.10222293176578044 -3.3909072387323889 0.0 -0.037166467503235212 0.97372041226109562 0.0 -0.01242535937210254 -2.7502387825336618 0.0 0.054773861294567447 1.028250586214795 0.0 -0.025448593953869447 1.0064658080822697 0.0 0.0096135657640893935 -2.6254866228573217 0.0 -0.051433205414007685 1.205748679627173 0.0 -0.027388631904824212 -2.929612330301659 0.0 -0.064246782974213434 0.96854979040409117 0.0 -0.039433283414645026 1.0089072472006808 0.0 -0.033253981647029196 0.99312216178411461 0.0 0.0067291949796771389 1.0727283222455068 0.0 -0.051690675010829301 1.051471388937427 0.0 0.071512510836866494 -3.0636608421587099 0.0 0.016083167061310411 1.0950096873441484 0.0 0.076330705374148544 1.1396012443400829 0.0 0.044557358472544273 1.2591319844349815 0.0 0.058713953121331097 1.0912932371461834 0.0 -0.058479570922704394 -3.1543033295862561 0.0 -0.007439200166912352 1.1379799947266522 0.0 -0.031761817867120512 0.97102445396461246 0.0 -0.021097920589058683 -2.9725704632305336 0.0 0.16199833562062449 0.96950843739990111 0.0 0.072332323699044132 0.9989755727847478 0.0 -0.11743058125305947 1.088187736697632 0.0 -0.013843225093745803 1.0167699389270528 0.0 -0.12502850479835256 1.0411703017750136 0.0 -0.15247700404630171 0.96611532309978176 0.0 -0.093746513325046826 1.1195042933271473 0.0 0.039083094073933317 -2.8637233235891539 0.0 0.018061568822531265 1.1279328880986839 0.0 0.18193067181588546 1.1473253140133248 0.0 -0.19544065397845239 0.66813044334514327 0.0 0.00037343955613192668 1.0078628431767096 0.0 0.041950005435062221 -3.1192418746954598 0.0 -0.064152521986674205 0.86506219309878563 0.0 0.038899996465225836 1.036752077958438 0.0 -0.015287093418686396 -2.6298977900928628 0.0 0.033260067617120082 1.1399324417525405 0.0 -0.095785331465578966 -3.6145226737356828 0.0 0.0025675761348657837 1.1047088909213258 0.0 0.14724632603192439 1.0931714702158655 0.0 -0.048695807100672228 1.1135949791756015 0.0 -0.042088743573928666 1.093817698258136 0.0 -0.050305648427991276 1.0247011849413346 0.0 -0.069561712341519144 1.3578476939574076 0.0 -0.12566980357707877 1.0319816388698462 0.0 0.11357350586357899 1.1688061011821353 0.0 0.027906529791034029 0.98044818587632343 0.0 0.07261349373732004 1.1107815160452148 0.0 -0.069335147661943153 -3.1755353386932303 0.0 -0.097115621466420374 0.9883062207103871 0.0 </DataArray>
<DataArray Name="radii" format="ascii" type="Float32">1.4 1.4 1.4 1.4 1.4 1.4 1.4 1.4 1.4 1.4 1.4 1.4 1.4 1.4 1.4 1.4 1.4 1.4 1.4 1.4 1.4 1.4 1.4 1.4 1.4 1.4 1.4 1.4 1.4 1.4 1.4 1.4 1.4 1.4 1.4 1.4 1.4 1.4 1.4 1.4 1.4 1.4 1.4 1.4 1.4 1.4 1.4 1.4 1.4 1.4 1.4 1.4 1.4 1.4 1.4 1.4 1.4 1.4 1.4 1.4 1.4 1.4 1.4 1.4 </DataArray>
</PointData>
<CellData/>
</Piece>
</UnstructuredGrid>
</VTKFile>
