<?xml version="1.0" ?>
<VTKFile byte_order="LittleEndian" type="UnstructuredGrid" version="0.1">
<UnstructuredGrid>
<Piece NumberOfCells="0" NumberOfPoints="225">
<Points>
<DataArray NumberOfComponents="3" format="ascii" type="Float32">0 0 0 7.9927313470815529 1.2 2 19.572636213154201 4.0607898268652107 2 21.762205979582333 10.045466199379439 2 22.974111289620591 2.8572045294566468 2 26.640067882590181 3.3537952275089098 2 36.859273721414738 4.2558897255666475 2 38.528082801527042 5.3576952786749477 2 45.590376045071146 1.3050949540797228 2 48.748337680551131 8.6759322755515775 2 53.391064240386825 9.0315898056047903 2 62.692590501184505 1.2 2 68.360954044388805 6.881598617789197 2 70.621444736805515 6.197546295370036 2 74.396937342727227 9.3926021049870663 2 76.805234490493589 2.4699882698852988 2 81.610084321334256 6.239712111897636 2 93.548941003646476 8.3681933679383107 2 96.48297716306142 1.2 2 14.913695319629623 5.1403377944979516 2 20.602623488033622 8.7579936823598228 2 22.488611633065549 8.2779761148936828 2 26.64963574107918 5.0139423568371893 2 34.186050298856784 1.2 2 45.706906599307374 4.8978983202006594 2 46.570261803356551 6.6121455918158203 2 52.017938346199372 7.0719420180183041 2 60.329530379438928 12.290553849745864 2 69.022545393262476 5.3109103595111549 2 72.636119687677478 3.4521925821424113 2 72.960571421463513 6.2133033648547089 2 76.403882034131556 1 2 81.334104169996195 2.344834864392503 2 94.531169193524022 12.689670909566866 2 95.388088939734047 7.3050018695923944 2 12.569594191791623 3.2256181864092444 2 24.355117469661042 4.6696126355256506 2 28.297330244431176 3.636167007376748 2 38.776515617818212 9.0596997836419053 2 43.296211620420792 2.0380804669263051 2 61.539197843380734 3.0589161796756028 2 67.940275018869514 9.7274249952919831 2 72.976442522311828 10.373696390321886 2 76.748456161106645 6.418577536037275 2 79.963802045196985 5.9519895064082782 2 94.956621418607298 5.64402436309752 2 94.036602423108775 1.8715186788883942 2 12.800416261510268 1.4730991434157743 2 22.102018939958334 4.7036119566218764 2 25.558657058775072 10.454646682925885 2 29.001615442649836 9.6069525325288385 2 32.250638932483227 3.1877421182383014 2 44.732731103958713 9.5066311988737215 2 50.204658442708705 7.1972171352715391 2 54.527117163964725 5.7179270717005704 2 60.567689208585165 9.6983394254655355 2 68.331290982152936 1.2 2 73.353494940186607 1.2 2 75.761784793001993 3.1944306351374689 2 81.556891425473722 3.5674265783880981 2 93.094544273487728 11.264713090221735 2 97.644604518206521 10.463121681451502 2 8.2501186255221608 3.26546751957562 2 24.109385954446552 1.7478599087327573 2 25.20007414720898 1.2 2 36.942390144399845 6.2877074399865416 2 46.454737312445921 3.6295923006303541 2 64.722937994202113 1.2 2 65.991733164350762 7.5246417821662854 2 70.933150121608918 8.6921753647008515 2 73.093945085382515 8.2681880835532837 2 80.937092517622617 8.2534138847095413 2 93.649779183136687 5.6756535035400848 2 95.569868405402019 2.1893565610333456 2 12.101589457300491 4.8506591253753664 2 18.810178569298124 9.1952766246813926 2 23.615440085302907 10.261641130384497 2 28.835601425328534 4.9110708760203261 2 35.385546943190313 1.4259670137171081 2 42.981349865584683 5.8651742406004495 2 47.505046106923174 5.0954084148608931 2 51.622260200987249 8.8693638034010149 2 61.974791031321175 10.013421817724378 2 70.124742940105477 4.5427008537821436 2 69.450253952095196 1.2 2 73.502542421998783 4.667601218131999 2 82.368493197683051 1.2 2 94.524867369874158 10.322596634986757 2 96.456166183376666 9.6593820998461464 2 10.464577693968515 1.2 2 25.250792441776788 6.3475425388272271 2 27.843892836078659 1.2 2 34.468679665288498 10.555067131852889 2 43.233735865796987 4.0230702589675671 2 60.023123759199549 1.2 2 66.154861187438755 10.215397705668435 2 69.628422554060208 10.624567006304993 2 76.677022934307871 8.1556360687919476 2 78.438127928253735 6.4225583848234713 2 94.879019504051485 3.0750114978781968 2 92.594124849439979 2.2685756506750141 2 13.973278359397888 3.2531291660223758 2 21.535218961751756 2.9646196291784346 2 26.459037477868339 6.9946852209186368 2 31.045358078974928 10.470180179370177 2 34.377950528749295 4.881072107792237 2 41.696611309134575 8.1764844753913763 2 50.405475993212505 3.0445408150538618 2 53.459489094382882 7.2993020167555089 2 62.287898168931569 7.2363708434894951 2 68.34482145973584 2.9731273647598742 2 71.792252630668173 1.2 2 74.207389743466365 6.6034269492993785 2 83.83782525088489 5.8458309182098063 2 91.467573263411694 9.7624442931270661 2 96.610384743797425 12.787916822052226 2 20.38803395738471 6.504555269503423 2 9.2038894520477736 1.2 2 23.377154061302782 4.0106903133845586 2 25.053497518947157 2.8979760735388735 2 35.76986052629313 3.3486773399108078 2 44.415250312190587 1.2 2 61.635067383194787 1.2 2 67.519807949588724 5.856877171229792 2 69.798346349063635 7.0162367887589658 2 75.800706363392322 10.113926988172851 2 82.341048055028608 7.4514469009901099 2 93.89421960108055 7.0009476427871276 2 97.920088812006199 1.2 2 15.489425521320229 6.5088096827680957 2 21.712761185699041 6.9418238589081636 2 22.84188767195441 6.0184061986126194 2 27.672913341929604 5.5544783881962809 2 33.053087028908109 1.5708589111785853 2 44.537489121971724 5.5313567160042414 2 46.894382293581806 8.5544703212032189 2 51.239202720157138 5.6465080606348579 2 62.153454566298855 11.634407472158527 2 68.632691454372775 4.1147847776505708 2 71.528356982340213 4.2835241000688669 2 71.843537069953413 5.5895255490301823 2 80.860545667135952 1.2 2 92.696904252004472 13.484482755779331 2 95.063673688685867 8.6866971101169774 2 11.663071482178671 1.2 2 25.55155561464186 4.4700056141678006 2 28.929606021106569 2.4449550964397901 2 37.742607320211803 7.7321838126514821 2 42.24432544769391 1.2 2 59.854739683136053 3.1521161978370338 2 67.922650919139357 8.0144527112023773 2 71.365116723768949 10.433069100964069 2 75.372753860941174 5.7310888199430572 2 79.574342650310811 4.4222151768875388 2 94.253515928250394 4.5595968081319018 2 93.651146145605281 1.2 2 13.953955329198337 1.2 2 20.953309604277511 4.7858928620033154 2 27.165603545692182 8.9265310425367304 2 27.472644617633346 11.015212986849459 2 33.406806017737445 3.8326744188488631 2 45.083513981221955 7.415748497568293 2 48.468843459015901 6.846538473605678 2 54.881002685399004 4.3497211438054091 2 58.964329049905515 10.839077125827039 2 67.157698165853844 1.2 2 72.216894444160914 2.3148620302815113 2 76.511894688054625 4.60414471598751 2 81.126050707056649 4.750014159468523 2 91.645718183163694 11.697840898195185 2 98.8 11.274345553986437 2 9.7005198429205794 2.9922462150936555 2 23.063064197188403 1.2 2 26.333845445524538 1.2 2 35.768002116523213 7.7207775928535236 2 46.60780012627739 2.3660117255421498 2 63.685247491400666 1.2952618779253855 2 66.561291155542179 8.6624344976567365 2 69.453280219064453 8.7962060698970568 2 71.769400895402768 7.5621857290335486 2 79.937964754773475 7.4983032078244509 2 92.543428953562682 6.8820351781393674 2 95.309237651027047 1.2 2 13.520521484362657 5.2597826809280077 2 18.956756701291397 7.5517487216010055 2 23.981751935559739 8.2708675516478394 2 27.967691638676861 7.2465978270892357 2 34.399693338436393 2.9550506889351902 2 43.387778809948031 7.6614681417685864 2 49.044393346349253 5.2680274948818155 2 50.09005073155631 9.827073437274823 2 63.774228782150956 10.334413700504685 2 70.683025161588958 3.042209408318556 2 69.664212448780887 2.6471529777425049 2 74.672991427958991 4.2978427078553603 2 83.205143169945416 1.859585761796738 2 93.017343939285766 9.5578807859598367 2 95.775593432246339 11.20997326315532 2 11.130828671631507 3.11696670366746 2 23.971799158222911 6.5324714542082107 2 27.138874245181821 2.3633626472484837 2 36.536211606558417 9.6955326203606322 2 44.615728634198668 3.2432558673565159 2 60.799506314217865 1.9593501748675219 2 65.783463068356781 11.603213392111558 2 70.525688956878525 12.463584857549911 2 77.48236830786459 10.083417976264723 2 78.183327203363532 7.9998732568942144 2 95.448276160864211 4.2125919861063208 2 92.216261735633552 1.2 2 15.267820601902512 3.3619021055391083 2 20.057364811347593 2.7282970420237018 2 25.425337192534329 8.423641212064279 2 29.473162972103818 11.793197600096491 2 35.646521297255013 5.4844933651394339 2 40.622952655379855 9.7352054242837571 2 50.148483639216373 4.6485559749941148 2 52.995633458744358 5.2990910295897224 2 62.798168636661934 8.6008923558054242 2 67.128599373829246 2.727635402572929 2 70.627722259320819 1.2 2 75.181722266124652 7.8071759064576867 2 82.754252141293605 5.1950430378975012 2 91.842837134062975 8.1064987139783469 2 98.521328612541836 13.060583049397396 2 </DataArray>
</Points>
<Cells>
<DataArray Name="connectivity" format="ascii" type="Int32">0</DataArray>
<DataArray Name="offsets" format="ascii" type="Int32">0</DataArray>
<DataArray Name="types" format="ascii" type="UInt8">1</DataArray>
</Cells>
<PointData>
<DataArray Name="Points" NumberOfComponents="3" format="ascii" type="Float32">0 0 0 7.9927313470815529 1.2 2 19.572636213154201 4.0607898268652107 2 21.762205979582333 10.045466199379439 2 22.974111289620591 2.8572045294566468 2 26.640067882590181 3.3537952275089098 2 36.859273721414738 4.2558897255666475 2 38.528082801527042 5.3576952786749477 2 45.590376045071146 1.3050949540797228 2 48.748337680551131 8.6759322755515775 2 53.391064240386825 9.0315898056047903 2 62.692590501184505 1.2 2 68.360954044388805 6.881598617789197 2 70.621444736805515 6.197546295370036 2 74.396937342727227 9.3926021049870663 2 76.805234490493589 2.4699882698852988 2 81.610084321334256 6.239712111897636 2 93.548941003646476 8.3681933679383107 2 96.48297716306142 1.2 2 14.913695319629623 5.1403377944979516 2 20.602623488033622 8.7579936823598228 2 22.488611633065549 8.2779761148936828 2 26.64963574107918 5.0139423568371893 2 34.186050298856784 1.2 2 45.706906599307374 4.8978983202006594 2 46.570261803356551 6.6121455918158203 2 52.017938346199372 7.0719420180183041 2 60.329530379438928 12.290553849745864 2 69.022545393262476 5.3109103595111549 2 72.636119687677478 3.4521925821424113 2 72.960571421463513 6.2133033648547089 2 76.403882034131556 1 2 81.334104169996195 2.344834864392503 2 94.531169193524022 12.689670909566866 2 95.388088939734047 7.3050018695923944 2 12.569594191791623 3.2256181864092444 2 24.355117469661042 4.6696126355256506 2 28.297330244431176 3.636167007376748 2 38.776515617818212 9.0596997836419053 2 43.296211620420792 2.0380804669263051 2 61.539197843380734 3.0589161796756028 2 67.940275018869514 9.7274249952919831 2 72.976442522311828 10.373696390321886 2 76.748456161106645 6.418577536037275 2 79.963802045196985 5.9519895064082782 2 94.956621418607298 5.64402436309752 2 94.036602423108775 1.8715186788883942 2 12.800416261510268 1.4730991434157743 2 22.102018939958334 4.7036119566218764 2 25.558657058775072 10.454646682925885 2 29.001615442649836 9.6069525325288385 2 32.250638932483227 3.1877421182383014 2 44.732731103958713 9.5066311988737215 2 50.204658442708705 7.1972171352715391 2 54.527117163964725 5.7179270717005704 2 60.567689208585165 9.6983394254655355 2 68.331290982152936 1.2 2 73.353494940186607 1.2 2 75.761784793001993 3.1944306351374689 2 81.556891425473722 3.5674265783880981 2 93.094544273487728 11.264713090221735 2 97.644604518206521 10.463121681451502 2 8.2501186255221608 3.26546751957562 2 24.109385954446552 1.7478599087327573 2 25.20007414720898 1.2 2 36.942390144399845 6.2877074399865416 2 46.454737312445921 3.6295923006303541 2 64.722937994202113 1.2 2 65.991733164350762 7.5246417821662854 2 70.933150121608918 8.6921753647008515 2 73.093945085382515 8.2681880835532837 2 80.937092517622617 8.2534138847095413 2 93.649779183136687 5.6756535035400848 2 95.569868405402019 2.1893565610333456 2 12.101589457300491 4.8506591253753664 2 18.810178569298124 9.1952766246813926 2 23.615440085302907 10.261641130384497 2 28.835601425328534 4.9110708760203261 2 35.385546943190313 1.4259670137171081 2 42.981349865584683 5.8651742406004495 2 47.505046106923174 5.0954084148608931 2 51.622260200987249 8.8693638034010149 2 61.974791031321175 10.013421817724378 2 70.124742940105477 4.5427008537821436 2 69.450253952095196 1.2 2 73.502542421998783 4.667601218131999 2 82.368493197683051 1.2 2 94.524867369874158 10.322596634986757 2 96.456166183376666 9.6593820998461464 2 10.464577693968515 1.2 2 25.250792441776788 6.3475425388272271 2 27.843892836078659 1.2 2 34.468679665288498 10.555067131852889 2 43.233735865796987 4.0230702589675671 2 60.023123759199549 1.2 2 66.154861187438755 10.215397705668435 2 69.628422554060208 10.624567006304993 2 76.677022934307871 8.1556360687919476 2 78.438127928253735 6.4225583848234713 2 94.879019504051485 3.0750114978781968 2 92.594124849439979 2.2685756506750141 2 13.973278359397888 3.2531291660223758 2 21.535218961751756 2.9646196291784346 2 26.459037477868339 6.9946852209186368 2 31.045358078974928 10.470180179370177 2 34.377950528749295 4.881072107792237 2 41.696611309134575 8.1764844753913763 2 50.405475993212505 3.0445408150538618 2 53.459489094382882 7.2993020167555089 2 62.287898168931569 7.2363708434894951 2 68.34482145973584 2.9731273647598742 2 71.792252630668173 1.2 2 74.207389743466365 6.6034269492993785 2 83.83782525088489 5.8458309182098063 2 91.467573263411694 9.7624442931270661 2 96.610384743797425 12.787916822052226 2 20.38803395738471 6.504555269503423 2 9.2038894520477736 1.2 2 23.377154061302782 4.0106903133845586 2 25.053497518947157 2.8979760735388735 2 35.76986052629313 3.3486773399108078 2 44.415250312190587 1.2 2 61.635067383194787 1.2 2 67.519807949588724 5.856877171229792 2 69.798346349063635 7.0162367887589658 2 75.800706363392322 10.113926988172851 2 82.341048055028608 7.4514469009901099 2 93.89421960108055 7.0009476427871276 2 97.920088812006199 1.2 2 15.489425521320229 6.5088096827680957 2 21.712761185699041 6.9418238589081636 2 22.84188767195441 6.0184061986126194 2 27.672913341929604 5.5544783881962809 2 33.053087028908109 1.5708589111785853 2 44.537489121971724 5.5313567160042414 2 46.894382293581806 8.5544703212032189 2 51.239202720157138 5.6465080606348579 2 62.153454566298855 11.634407472158527 2 68.632691454372775 4.1147847776505708 2 71.528356982340213 4.2835241000688669 2 71.843537069953413 5.5895255490301823 2 80.860545667135952 1.2 2 92.696904252004472 13.484482755779331 2 95.063673688685867 8.6866971101169774 2 11.663071482178671 1.2 2 25.55155561464186 4.4700056141678006 2 28.929606021106569 2.4449550964397901 2 37.742607320211803 7.7321838126514821 2 42.24432544769391 1.2 2 59.854739683136053 3.1521161978370338 2 67.922650919139357 8.0144527112023773 2 71.365116723768949 10.433069100964069 2 75.372753860941174 5.7310888199430572 2 79.574342650310811 4.4222151768875388 2 94.253515928250394 4.5595968081319018 2 93.651146145605281 1.2 2 13.953955329198337 1.2 2 20.953309604277511 4.7858928620033154 2 27.165603545692182 8.9265310425367304 2 27.472644617633346 11.015212986849459 2 33.406806017737445 3.8326744188488631 2 45.083513981221955 7.415748497568293 2 48.468843459015901 6.846538473605678 2 54.881002685399004 4.3497211438054091 2 58.964329049905515 10.839077125827039 2 67.157698165853844 1.2 2 72.216894444160914 2.3148620302815113 2 76.511894688054625 4.60414471598751 2 81.126050707056649 4.750014159468523 2 91.645718183163694 11.697840898195185 2 98.8 11.274345553986437 2 9.7005198429205794 2.9922462150936555 2 23.063064197188403 1.2 2 26.333845445524538 1.2 2 35.768002116523213 7.7207775928535236 2 46.60780012627739 2.3660117255421498 2 63.685247491400666 1.2952618779253855 2 66.561291155542179 8.6624344976567365 2 69.453280219064453 8.7962060698970568 2 71.769400895402768 7.5621857290335486 2 79.937964754773475 7.4983032078244509 2 92.543428953562682 6.8820351781393674 2 95.309237651027047 1.2 2 13.520521484362657 5.2597826809280077 2 18.956756701291397 7.5517487216010055 2 23.981751935559739 8.2708675516478394 2 27.967691638676861 7.2465978270892357 2 34.399693338436393 2.9550506889351902 2 43.387778809948031 7.6614681417685864 2 49.044393346349253 5.2680274948818155 2 50.09005073155631 9.827073437274823 2 63.774228782150956 10.334413700504685 2 70.683025161588958 3.042209408318556 2 69.664212448780887 2.6471529777425049 2 74.672991427958991 4.2978427078553603 2 83.205143169945416 1.859585761796738 2 93.017343939285766 9.5578807859598367 2 95.775593432246339 11.20997326315532 2 11.130828671631507 3.11696670366746 2 23.971799158222911 6.5324714542082107 2 27.138874245181821 2.3633626472484837 2 36.536211606558417 9.6955326203606322 2 44.615728634198668 3.2432558673565159 2 60.799506314217865 1.9593501748675219 2 65.783463068356781 11.603213392111558 2 70.525688956878525 12.463584857549911 2 77.48236830786459 10.083417976264723 2 78.183327203363532 7.9998732568942144 2 95.448276160864211 4.2125919861063208 2 92.216261735633552 1.2 2 15.267820601902512 3.3619021055391083 2 20.057364811347593 2.7282970420237018 2 25.425337192534329 8.423641212064279 2 29.473162972103818 11.793197600096491 2 35.646521297255013 5.4844933651394339 2 40.622952655379855 9.7352054242837571 2 50.148483639216373 4.6485559749941148 2 52.995633458744358 5.2990910295897224 2 62.798168636661934 8.6008923558054242 2 67.128599373829246 2.727635402572929 2 70.627722259320819 1.2 2 75.181722266124652 7.8071759064576867 2 82.754252141293605 5.1950430378975012 2 91.842837134062975 8.1064987139783469 2 98.521328612541836 13.060583049397396 2 </DataArray>
<DataArray Name="forces" NumberOfComponents="3" format="ascii" type="Float32">0 0 0 -0.18276818219041036 -0.41280467186010211 0.0 -0.07226500004530706 0.09894367637197643 0.0 -0.12714902464084077 0.58175552985130496 0.0 0.056710768162220239 0.099568884991900641 0.0 0.044941124918381092 0.11873604918649394 0.0 0.16668828973037059 0.061168806120604935 0.0 0.27949961773911458 0.19658797712837994 0.0 0.12381233361951108 -0.75822538480103008 0.0 -0.089004184209096504 0.39980416353013254 0.0 -0.056837694990124477 0.33337801380184912 0.0 -0.05899683588094029 -1.2403857812402146 0.0 0.012369859551756901 0.18165525349260364 0.0 0.10586112648285134 0.28422498924294154 0.0 0.05742484867034181 0.25584734860589298 0.0 0.023889810892216236 0.059891374542798914 0.0 -0.052483983827859015 0.17910073372483376 0.0 0.043739362346131738 0.32975223582442359 0.0 -0.079048250687065766 -2.2028141847157681 0.0 -0.12613102009223937 0.083748630942740765 0.0 -0.036789613770198293 0.42830692705001699 0.0 -0.075692944940700072 0.46427133435371959 0.0 0.0096251798124433741 0.12854677188664643 0.0 0.11885127563355265 -1.2595939447253368 0.0 -0.10648805992148425 0.14258805220666937 0.0 0.054639546430682917 0.17700600741007594 0.0 -0.040840599520983817 0.27253166138494161 0.0 -0.16067904104993835 0.4531859720994651 0.0 0.15094267532898342 0.1578742684786186 0.0 0.24603108538984131 0.084642435607032843 0.0 0.11825308869142742 0.14355182040231546 0.0 -0.061303548927119311 -1.0617270696546393 0.0 -0.26707261249488012 0.24752306629937254 0.0 0.0099632794560946536 0.48017279201334295 0.0 -0.06126616531475701 0.39308701017442615 0.0 0.083634338907327299 0.028119460952313199 0.0 -0.05207741618186644 0.23846997807660247 0.0 -0.073505060131391464 0.15114608016838621 0.0 0.10338272860664854 0.39691006579080551 0.0 0.075639336427888726 0.17131982607050322 0.0 0.1245132192258121 0.15019697701481849 0.0 0.097188409062184622 0.34518426351697806 0.0 0.21227587909148582 0.64568019553740075 0.0 -0.12678525738957139 0.25661366164086963 0.0 -0.01595519703577597 0.21132236662669845 0.0 0.025609573160787324 0.19577039913591421 0.0 0.21329971760074526 -0.07109906043088797 0.0 -0.053877002149268403 -0.31024917630382803 0.0 -0.051703629548378816 0.25181920324504559 0.0 -0.055535890606792003 0.42571948577159646 0.0 0.1698000025351763 0.51310174168758982 0.0 0.093908128466709401 0.10004092521442955 0.0 0.0014586169541480343 0.38657059436644364 0.0 -0.089767646239485036 0.35282337121582663 0.0 -0.20801050042385247 0.2189741073074945 0.0 -0.25525157015627931 0.52007900868801804 0.0 0.01745521923310217 -1.3150208541702315 0.0 0.10287886334889385 -1.4854600480350453 0.0 -0.00081591492629407014 0.11589902890225112 0.0 -0.018441411607615338 0.030230209386668039 0.0 0.20926232114612822 0.53906243504233853 0.0 -0.1000343049694758 0.5146735219756523 0.0 -0.29662795585924334 -0.15148850063496125 0.0 -0.019221630883642704 -0.15786678663426018 0.0 -0.0082657802481803933 -1.2988400221186664 0.0 0.085120106686361718 0.13529245298370068 0.0 0.029407492025132487 0.0071458589878050094 0.0 0.25209936873482386 -1.2488890293516288 0.0 -0.1109758535017738 0.20822271189364772 0.0 0.23709873115233404 0.44260164707575078 0.0 0.035444924512241849 0.37735440308476775 0.0 -0.044951338640913385 0.31495267373639785 0.0 0.016540738032157665 0.21598388728442586 0.0 0.091977202295923127 0.278318425861035 0.0 -0.13703236955426912 0.15514321750881105 0.0 0.085521339487442546 0.47984154832712356 0.0 -0.12760600970872235 0.47663380404881417 0.0 0.058620837990426722 0.15006989154784445 0.0 0.22005786106040531 -0.61441707955758784 0.0 -0.12120273938957048 0.19955310669934612 0.0 -0.019257437460642679 -0.0019303451691109058 0.0 -0.098458948530274815 0.33758505152829843 0.0 -0.11262086611091171 0.01118610181814661 0.0 0.050605189149735774 0.16707728291243917 0.0 0.032128930288889412 -1.3475704027811037 0.0 0.032485445748553943 0.12713175825782791 0.0 -0.21674373128904945 -1.6842819290318627 0.0 0.046309856039043695 0.36281067935679656 0.0 0.067660830441966552 0.10347619755852056 0.0 -0.052545137268158099 -0.77609303819145703 0.0 0.031531956314724656 0.21693723316021535 0.0 0.064835964815846525 -1.4588559040807061 0.0 0.020642200551760359 0.56752415544302937 0.0 -0.1537945052620886 0.11990837720758218 0.0 -0.055488992338620591 -1.6339625458457903 0.0 0.078139169684273369 0.27472072931272962 0.0 0.11734330195023412 0.37985983332150802 0.0 -0.084534898129987712 0.4210557764044926 0.0 -0.16770607294493609 0.1012654973213013 0.0 -0.1694188296308097 0.17311098865939248 0.0 0.015766274319390431 0.20732814331221894 0.0 -0.14672542270981137 0.11454265127133564 0.0 0.068046060090104943 0.057754976468561522 0.0 -0.070177496732351075 0.30433787661534728 0.0 0.10489236359846815 0.4373060610943606 0.0 0.11111901865037832 0.15148149258837557 0.0 -0.25919889518747929 0.12135063855758371 0.0 -0.098961641436454459 0.046401699830576404 0.0 -0.097569408188521167 0.31676107174118412 0.0 -0.083273575242899744 0.23104423433459953 0.0 0.090177525072242748 0.017089100672292939 0.0 0.15821811773474392 -1.3427626373832933 0.0 0.080155478361563337 0.26589967821579596 0.0 -0.13888772177336561 0.25209965377174381 0.0 -0.043910660318959016 0.45060343020835941 0.0 0.13714877747407128 0.49684697298517955 0.0 -0.067679329316560621 0.36990735872484731 0.0 -0.039154704726420464 -0.62883001375159764 0.0 0.03570498337223163 0.0022542386825040728 0.0 -0.003228764578238924 0.085103625339722655 0.0 0.083893277232621855 -0.063879253050079632 0.0 -0.22587294862407889 -1.0871823517832377 0.0 -0.13800384390348464 -1.6867820879220738 0.0 0.0075873837574306213 0.16470688511244452 0.0 0.096164710504448914 0.32862687454642975 0.0 -0.086152122893422209 0.63956059554449196 0.0 -0.08600248333415661 0.3092517119571126 0.0 -0.045548761030037258 0.24408762313250296 0.0 -0.020203733618178038 -2.0789600314970635 0.0 0.12336626917201199 0.27919474441139897 0.0 0.043545235365239368 0.25553077073245778 0.0 -0.012738670042083511 0.21186287584187985 0.0 -0.00021365867577266551 0.27151446243679278 0.0 0.084013578831550792 -0.19898061540413922 0.0 -0.097812423179499272 0.29906816379147205 0.0 -0.29017640132558453 0.59069743430365818 0.0 -0.034113995377957673 0.25380353096416763 0.0 -0.12447681733764951 0.24130389906443761 0.0 -0.030822403314087032 0.11460282794831289 0.0 0.038406381343886409 0.11464870042869235 0.0 0.063694565448277576 0.15806626738653584 0.0 -0.094216079043026868 -1.5330207116421759 0.0 -0.15279723775889859 0.54863085885448715 0.0 0.041519613802012162 0.40476017127196096 0.0 -0.067206704688467608 -0.86321460721546028 0.0 -0.0034048302372677933 0.13948546304531703 0.0 0.0080504508054277946 0.18504128863937566 0.0 0.33743164017787491 0.11690958412686279 0.0 -0.18446797814332161 -1.3103851496652561 0.0 -0.066326594150521168 0.098409806209081019 0.0 0.031279439515590229 0.23002424744399586 0.0 0.082303658654717518 0.35395153078741992 0.0 0.016898781631098113 0.13880834222539995 0.0 0.013033126505771042 0.22593300785844639 0.0 0.025526775423072745 0.18283028834188533 0.0 -0.25184790370813515 -2.556740528837286 0.0 0.06625952289356371 -0.78631400815618746 0.0 -0.091138063384328838 0.13504228185985043 0.0 0.12788561529495773 0.40873312275733248 0.0 -0.043253800516837526 0.53448568235869076 0.0 0.095116730355063406 -0.031954770700825197 0.0 0.0017266701183636934 0.24462614332818167 0.0 -0.21648052969514009 0.36172311485902126 0.0 -0.049975502914881176 0.26964927124165428 0.0 -0.20854813635363315 0.49446491238942503 0.0 -0.13053310351140732 -1.2667693060225333 0.0 -0.014518089093488118 0.15764128709551301 0.0 0.065086154652261863 0.090153191288859791 0.0 0.0092180950559914709 0.014298095438057989 0.0 0.058772337260678598 0.2702180381912821 0.0 0.90454035694412083 0.37013245660778182 0.0 -0.22337596075034105 0.054442837634753508 0.0 -0.15214919237233498 -1.4782555426155897 0.0 0.059081780433929976 -1.2766807380317324 0.0 0.18945751184021628 0.28296876735086574 0.0 -0.17725565070519916 0.11059637521061463 0.0 0.057102230640393353 -0.82331342820563047 0.0 0.044949201363481087 0.20426734173516853 0.0 0.16293645489070285 0.23432309125267692 0.0 0.12519781958197257 0.22961752414691894 0.0 -0.0048479126909390935 0.15386018489158149 0.0 -0.041821205687621488 0.25811880040478741 0.0 -0.14187322682681291 -2.4237137903462997 0.0 -0.050923847581854233 0.25592807381716509 0.0 -0.13262048323081699 0.2638238549617718 0.0 -0.016836241844145561 0.26627277401609906 0.0 -0.013149537661960808 0.23888879313613515 0.0 0.198961209661911 -0.019098282208885542 0.0 -0.016576073763888033 0.3630533931948009 0.0 -0.0099149659017371272 0.29674583468284405 0.0 -0.020203829000768836 0.72971660952871886 0.0 0.21022041627525162 0.92267246558507732 0.0 0.089605467102437664 0.083455325630576782 0.0 0.097373736969750768 0.14182099921157504 0.0 0.052624543296349802 0.21749713208745614 0.0 -0.19194131968088551 0.024942125671804011 0.0 -0.11131682185330266 0.36064083309462835 0.0 0.080382624637436673 0.39039647267063493 0.0 0.039329763087827985 0.045533401728008613 0.0 0.020560108314122652 0.34406789666064763 0.0 -0.1079119398570042 0.02754375584133173 0.0 0.13740986408801467 0.30780609660482017 0.0 0.15940287776201079 0.10542031647919627 0.0 -0.043769940868306156 0.2630750317748381 0.0 -0.067048072703203954 0.27310802629063247 0.0 0.077551833203766615 0.51525608811367007 0.0 -0.018674568572519173 0.40750384280786323 0.0 -0.0044761859881949362 0.22148472062207789 0.0 0.035770639063349888 0.2099241606743788 0.0 -0.012380300058033367 -2.0562212361945331 0.0 -0.096941114691269981 -0.088075565473854561 0.0 0.039846928558119811 0.12556066152824566 0.0 0.013521994503045117 0.42047356448201778 0.0 0.0039546801172040125 0.47451282338872858 0.0 0.13182710755373458 0.16417764784528913 0.0 0.11369336178458433 0.56811594844228952 0.0 -0.077724784727317253 0.13977922532330689 0.0 -0.12111561906119828 0.097465810690512078 0.0 0.019185010907826316 0.42316154013757623 0.0 0.12309691220205171 0.049964007380515651 0.0 0.066733967432486496 -1.3725283265071631 0.0 -0.037501713714849935 0.3529757782689017 0.0 -0.075761960883161505 0.21866412562826482 0.0 -0.020404257443833729 0.28333703892451295 0.0 0.37768490093246948 0.66056560474077219 0.0 </DataArray>
<DataArray Name="radii" format="ascii" type="Float32">0 1.2 1.4 1 1.2 1.2 1.2 1.4 1.2 1.2 1.2 1.2 1.2 1.2 1.2 1.2 1.2 1.2 1.2 1.2 1.2 1.2 1.2 1.2 1.2 1.2 1.2 1.2 1.2 1.2 1.2 1 1.2 1.2 1.2 1.2 1.2 1.2 1.2 1.2 1.2 1.2 1.2 1.2 1.2 1.2 1.2 1.2 1.2 1.2 1.2 1.2 1.2 1.2 1.2 1.2 1.2 1.2 1.2 1.2 1.2 1.2 1.2 1.2 1.2 1.2 1.2 1.2 1.2 1.2 1.2 1.2 1.2 1.2 1.2 1.2 1.2 1.2 1.2 1.2 1.2 1.2 1.2 1.2 1.2 1.2 1.2 1.2 1.2 1.2 1.2 1.2 1.2 1.2 1.2 1.2 1.2 1.2 1.2 1.2 1.2 1.2 1.2 1.2 1.2 1.2 1.2 1.2 1.2 1.2 1.2 1.2 1.2 1.2 1.2 1.2 1.4 1.2 1.2 1.2 1.2 1.2 1.2 1.2 1.2 1.2 1.2 1.2 1.2 1.2 1.2 1.2 1.2 1.2 1.2 1.2 1.2 1.2 1.2 1.2 1.2 1.2 1.2 1.2 1.2 1.2 1.2 1.2 1.2 1.2 1.2 1.2 1.2 1.2 1.2 1.2 1.2 1.2 1.2 1.2 1.2 1.2 1.2 1.2 1.2 1.2 1.2 1.2 1.2 1.2 1.2 1.2 1.2 1.2 1.2 1.2 1.2 1.2 1.2 1.2 1.2 1.2 1.2 1.2 1.2 1.2 1.2 1.2 1.2 1.2 1.2 1.2 1.2 1.2 1.2 1.2 1.2 1.2 1.2 1.2 1.2 1.2 1.2 1.2 1.2 1.2 1.2 1.2 1.2 1.2 1.2 1.2 1.2 1.2 1.2 1.2 1.2 1.2 1.2 1.2 1.2 1.2 1.2 1.2 1.2 </DataArray>
</PointData>
<CellData/>
</Piece>
</UnstructuredGrid>
</VTKFile>
