<?xml version="1.0" ?>
<VTKFile byte_order="LittleEndian" type="UnstructuredGrid" version="0.1">
<UnstructuredGrid>
<Piece NumberOfCells="0" NumberOfPoints="47">
<Points>
<DataArray NumberOfComponents="3" format="ascii" type="Float32">1.2 1.2032219017510595 2 5.3686633422865757 3.9291921707905217 2 7.6300997991791144 3.1468341442011631 2 16.635853497032581 4.1283566403893781 2 29.817087011069557 3.7233162248221894 2 39.60711783197894 4.3827846313581311 2 42.867176439889235 3.3119168333885369 2 56.356129593253705 6.3510595912538053 2 61.824628034983817 4.4517746978228132 2 63.926898759926125 4.057976112119551 2 78.491366837042449 5.3472977651104996 2 86.893999705265685 1.4 2 89.259455626312388 1.4 2 89.476528817161338 10.008692776089172 2 98.6 5.9278689720848021 2 9.0971292250422113 4.6457634525153271 2 13.56207935967311 6.3837883900474504 2 31.029682964306485 5.971164060965326 2 41.577019894475683 4.4823913171877994 2 56.902443274924863 1.4 2 59.003201330826684 1.4 2 65.271253992296892 9.2077298865689254 2 83.826226091571144 7.2784917569270746 2 84.644401972211867 1.4 2 88.437460196638227 5.311600159177349 2 90.860761019606755 5.7171608643116247 2 98.6 1.4 2 16.227397355081607 6.7715890675502655 2 30.917620095061615 1.4 2 57.56029095644935 3.8230584809303116 2 58.913700370110575 5.9670730553629001 2 66.02896094396236 3.4300347098256214 2 87.900541072071235 3.343572366202388 2 90.306107373504531 3.290052733710398 2 88.972027477473489 7.5762120512469542 2 96.750973312224062 3.7808708102209976 2 10.335562174346267 7.0455580680190417 2 11.643252515583951 4.611077207418635 2 33.275625167368382 5.3723772390135887 2 54.690614483386128 1.4 2 59.879281534858492 3.5643519019144194 2 64.670322652536655 6.3171967657436472 2 81.025606665872402 7.4066304978509514 2 85.694854577698706 3.7634242529286879 2 86.113777379966706 6.2011865504657191 2 92.453605092554596 3.7423004151067278 2 98.6 3.5138885169457339 2 </DataArray>
</Points>
<Cells>
<DataArray Name="connectivity" format="ascii" type="Int32">0</DataArray>
<DataArray Name="offsets" format="ascii" type="Int32">0</DataArray>
<DataArray Name="types" format="ascii" type="UInt8">1</DataArray>
</Cells>
<PointData>
<DataArray Name="Points" NumberOfComponents="3" format="ascii" type="Float32">1.2 1.2032219017510595 2 5.3686633422865757 3.9291921707905217 2 7.6300997991791144 3.1468341442011631 2 16.635853497032581 4.1283566403893781 2 29.817087011069557 3.7233162248221894 2 39.60711783197894 4.3827846313581311 2 42.867176439889235 3.3119168333885369 2 56.356129593253705 6.3510595912538053 2 61.824628034983817 4.4517746978228132 2 63.926898759926125 4.057976112119551 2 78.491366837042449 5.3472977651104996 2 86.893999705265685 1.4 2 89.259455626312388 1.4 2 89.476528817161338 10.008692776089172 2 98.6 5.9278689720848021 2 9.0971292250422113 4.6457634525153271 2 13.56207935967311 6.3837883900474504 2 31.029682964306485 5.971164060965326 2 41.577019894475683 4.4823913171877994 2 56.902443274924863 1.4 2 59.003201330826684 1.4 2 65.271253992296892 9.2077298865689254 2 83.826226091571144 7.2784917569270746 2 84.644401972211867 1.4 2 88.437460196638227 5.311600159177349 2 90.860761019606755 5.7171608643116247 2 98.6 1.4 2 16.227397355081607 6.7715890675502655 2 30.917620095061615 1.4 2 57.56029095644935 3.8230584809303116 2 58.913700370110575 5.9670730553629001 2 66.02896094396236 3.4300347098256214 2 87.900541072071235 3.343572366202388 2 90.306107373504531 3.290052733710398 2 88.972027477473489 7.5762120512469542 2 96.750973312224062 3.7808708102209976 2 10.335562174346267 7.0455580680190417 2 11.643252515583951 4.611077207418635 2 33.275625167368382 5.3723772390135887 2 54.690614483386128 1.4 2 59.879281534858492 3.5643519019144194 2 64.670322652536655 6.3171967657436472 2 81.025606665872402 7.4066304978509514 2 85.694854577698706 3.7634242529286879 2 86.113777379966706 6.2011865504657191 2 92.453605092554596 3.7423004151067278 2 98.6 3.5138885169457339 2 </DataArray>
<DataArray Name="forces" NumberOfComponents="3" format="ascii" type="Float32">-0.22077408745103028 0.022769046714615059 0.0 0.14012439837078014 0.15828543393078726 0.0 -0.2220427071759955 0.081662932553164952 0.0 0.11488887609973487 0.090418666062171221 0.0 0.024229072106228267 0.084533193302392201 0.0 0.036568278850903163 0.29730027916901597 0.0 -0.041824980744366455 0.066592246178009268 0.0 -0.18084941898060289 0.11058371749413473 0.0 0.040153136276062956 0.12773294495446058 0.0 0.01491549840793216 0.091863960774550502 0.0 -0.063270095335153875 0.18051522940177428 0.0 -0.096748865593003594 -0.69552553008623386 0.0 -0.068130386511674468 -0.83095342534842942 0.0 0.064253482891075631 0.31777151921551805 0.0 0.17294908253502025 0.24961174588310783 0.0 -0.08936908293600665 0.13650036806163202 0.0 0.010190460897661402 0.22862000003392291 0.0 0.04337027291724449 0.15825391010022535 0.0 0.031435744592272358 0.18626416019373485 0.0 -0.195191221128999 -0.28862431039774422 0.0 -0.13692862538324393 -0.44845773894359264 0.0 0.038830545010350381 0.33512026048737292 0.0 -0.083756250369185103 0.34705406356152602 0.0 -0.08871272271331912 -0.57259155589678179 0.0 0.016277549548847414 0.13790525673937504 0.0 0.0062407182015404572 0.22378179172630228 0.0 0.42207605202605958 -0.70133398292392224 0.0 0.092878834886773495 0.14716367960403404 0.0 0.1190560742977026 -0.60187471391836578 0.0 -0.091874423770422431 0.095283121474996096 0.0 -0.14954384133120935 0.22329578271086256 0.0 0.070875132945785846 0.044314744626547026 0.0 -0.0089060672712812927 0.067134584694583527 0.0 0.019094435974633388 0.13251959747526015 0.0 -0.063319258600217296 0.26430715898575108 0.0 -0.010691318533849081 0.14796035428980031 0.0 0.030177065693981858 0.12480918196843352 0.0 -0.015148318249834269 0.10307426124259117 0.0 0.20207391767486757 0.32177011322629362 0.0 -0.19001277048353135 -0.46238104316106438 0.0 -0.027977029444411466 0.16988801845196266 0.0 0.022788470262509242 0.22243670929968704 0.0 -0.14684168836756295 0.24088495866907336 0.0 -0.057691060202504203 0.18802414058532385 0.0 0.012839970996632373 0.32969982749484866 0.0 0.068189168581105034 0.14839683997852288 0.0 0.92279462182946492 0.17229232588170162 0.0 </DataArray>
<DataArray Name="radii" format="ascii" type="Float32">1.2 1.2 1 1.4 1.4 1.2 1 1.4 1.4 1.4 1 1.4 1.4 1.4 1.4 1.4 1.4 1.4 1 1.4 1.4 1.4 1.4 1.4 1.4 1.4 1.4 1.4 1.4 1.4 1.4 1.4 1.4 1.4 1.4 1.4 1.4 1.4 1.4 1.4 1.4 1.4 1.4 1.4 1.4 1.4 1.4 </DataArray>
</PointData>
<CellData/>
</Piece>
</UnstructuredGrid>
</VTKFile>
