<?xml version="1.0" ?>
<VTKFile byte_order="LittleEndian" type="UnstructuredGrid" version="0.1">
<UnstructuredGrid>
<Piece NumberOfCells="0" NumberOfPoints="16">
<Points>
<DataArray NumberOfComponents="3" format="ascii" type="Float32">3.3899956065395354 1.05 2 7.5834531107838794 1.05 2 16.212884521609851 1.05 2 19.738329175300933 1.05 2 21.770396607422125 1.05 2 34.359823717875862 1.05 2 38.011147892633154 1.05 2 41.729935453613301 1.05 2 50.022435975231893 1.05 2 51.943512118243653 1.05 2 53.89282635277754 1.05 2 65.8947854973528 1.05 2 72.081249929799782 1.05 2 78.040639898523409 1.05 2 80.056759960369888 1.05 2 92.296631411261757 1.05 2 </DataArray>
</Points>
<Cells>
<DataArray Name="connectivity" format="ascii" type="Int32">0</DataArray>
<DataArray Name="offsets" format="ascii" type="Int32">0</DataArray>
<DataArray Name="types" format="ascii" type="UInt8">1</DataArray>
</Cells>
<PointData>
<DataArray Name="Points" NumberOfComponents="3" format="ascii" type="Float32">3.3899956065395354 1.05 2 7.5834531107838794 1.05 2 16.212884521609851 1.05 2 19.738329175300933 1.05 2 21.770396607422125 1.05 2 34.359823717875862 1.05 2 38.011147892633154 1.05 2 41.729935453613301 1.05 2 50.022435975231893 1.05 2 51.943512118243653 1.05 2 53.89282635277754 1.05 2 65.8947854973528 1.05 2 72.081249929799782 1.05 2 78.040639898523409 1.05 2 80.056759960369888 1.05 2 92.296631411261757 1.05 2 </DataArray>
<DataArray Name="forces" NumberOfComponents="3" format="ascii" type="Float32">-0.0094435037518348919 -0.019627711622300224 0.0 -0.027117722580770665 -0.046749475091648278 0.0 0.0099370776245978898 -0.069920775099935828 0.0 -0.061162237392362893 -0.042779338113389472 0.0 0.022373450287876476 -0.04915935396494138 0.0 0.036455218777043358 -0.077628413129923926 0.0 -0.0013277277375514027 -0.052490558355808445 0.0 -0.027264405166090341 -0.071258808573666704 0.0 -0.014191058490427372 -0.06824985802950824 0.0 -0.018948044187773405 0.0 0.0 0.047983183874930085 -0.078677689419033192 0.0 -0.064974284257734341 -0.1397957031213769 0.0 0.089770254095860674 -0.12990127906180071 0.0 -0.11574572377142142 -0.033810674325360772 0.0 0.15192643491891397 -0.064095011095160762 0.0 0.012816600334918327 -0.098781421689468019 0.0 </DataArray>
<DataArray Name="radii" format="ascii" type="Float32">1.05 1.05 1.05 1.05 1.05 1.05 1.05 1.05 1.05 1.05 1.05 1.05 1.05 1.05 1.05 1.05 </DataArray>
</PointData>
<CellData/>
</Piece>
</UnstructuredGrid>
</VTKFile>
