<?xml version="1.0" ?>
<VTKFile byte_order="LittleEndian" type="UnstructuredGrid" version="0.1">
<UnstructuredGrid>
<Piece NumberOfCells="0" NumberOfPoints="17">
<Points>
<DataArray NumberOfComponents="3" format="ascii" type="Float32">0 0 0 179.86242068823728 83.736850723728409 3.0 31.870479692354397 145.013620335306 3.0 41.74674380333515 142.66370193658562 2.5 190.9177781593252 147.21874312466633 2.5 193.26215004199764 177.75520217932487 2.5 25.624786927863685 184.68412895724035 2.5 40.553321617272694 131.9979917601506 2.5 45.631101130488744 146.92057639135984 2 193.41744055537262 152.7749187064762 2 38.541833723921613 151.8297212366079 2 24.778210471049825 190.09553437159013 2 178.57374858763504 77.954028977713293 2 175.49209219881695 155.13892413946914 2 181.57928562046922 177.90772204023793 2.5 96.323796531826304 62.172655009523936 2.5 188.30054893259305 180.57846255114521 2 </DataArray>
</Points>
<Cells>
<DataArray Name="connectivity" format="ascii" type="Int32">0</DataArray>
<DataArray Name="offsets" format="ascii" type="Int32">0</DataArray>
<DataArray Name="types" format="ascii" type="UInt8">1</DataArray>
</Cells>
<PointData>
<DataArray Name="Points" NumberOfComponents="3" format="ascii" type="Float32">0 0 0 179.86242068823728 83.736850723728409 3.0 31.870479692354397 145.013620335306 3.0 41.74674380333515 142.66370193658562 2.5 190.9177781593252 147.21874312466633 2.5 193.26215004199764 177.75520217932487 2.5 25.624786927863685 184.68412895724035 2.5 40.553321617272694 131.9979917601506 2.5 45.631101130488744 146.92057639135984 2 193.41744055537262 152.7749187064762 2 38.541833723921613 151.8297212366079 2 24.778210471049825 190.09553437159013 2 178.57374858763504 77.954028977713293 2 175.49209219881695 155.13892413946914 2 181.57928562046922 177.90772204023793 2.5 96.323796531826304 62.172655009523936 2.5 188.30054893259305 180.57846255114521 2 </DataArray>
<DataArray Name="forces" NumberOfComponents="3" format="ascii" type="Float32">0 0 0 1.1678400090905546e-05 1.7869004880937279e-06 0.0 0.0 0.0 0.0 -0.023914455243507049 -0.012137654138012292 0.0 1.2016053340429905e-06 1.131550053490255e-05 0.0 0.0 0.0 0.0 0.0 0.0 0.0 -0.0096221334323943423 0.0090778235321993042 0.0 0.017045040343380519 0.034490038669208668 0.0 0.0 0.0 0.0 0.0009833436118403603 0.0029919592324146546 0.0 0.0 0.0 0.0 0.0 0.0 0.0 -0.00095360685698951328 -0.00058782292940607705 0.0 -0.0011986850502873391 0.0015870428434183168 0.0 -0.0033584946097016503 0.0033676660260384011 0.0 0.0 0.0 0.0 </DataArray>
<DataArray Name="radii" format="ascii" type="Float32">0 2.75 2.75 2.85 2.75 2.85 2.75 2.85 2.85 2.75 2.85 2.75 2.75 2.75 2.85 2.85 2.85 </DataArray>
</PointData>
<CellData/>
</Piece>
</UnstructuredGrid>
</VTKFile>
