<?xml version="1.0" ?>
<VTKFile byte_order="LittleEndian" type="UnstructuredGrid" version="0.1">
<UnstructuredGrid>
<Piece NumberOfCells="0" NumberOfPoints="202">
<Points>
<DataArray NumberOfComponents="3" format="ascii" type="Float32">0 0 0 35.019598594336031 3.9587261158641822 2.5 74.336914342360885 16.430186028043405 3.0 24.129520796310572 17.913728108746238 3.0 61.708975845752065 17.752498995118049 2.5 103.06092322744294 20.814340320355889 3.0 139.44598053059224 25.260960372005417 2.5 21.798959099180518 35.391681349132476 2.5 180.93276004189744 26.74707791039684 2.5 111.07822216984555 40.315256442251332 2.5 68.714136457858302 31.903343156062409 2.5 27.430427543434686 43.696691172014773 2.5 101.9901704161725 51.855603448202316 3.0 93.771824722605103 60.309407095685664 2.5 71.241300578486104 64.494637631301273 2.5 171.63229458001419 76.836743212480627 2.5 181.19150701464244 80.369129762948702 3.0 60.541401626682095 89.563334206578475 2.5 178.88175225186612 130.59042283068237 2.5 40.900308540745854 113.19295750060694 2.5 76.437732632911036 130.90938340261218 2.5 150.73733766020641 132.13579440440836 2.5 15.206662779893866 129.14769446464379 2.5 2.95 125.83135996356668 2.5 33.670571486813394 143.09320597038908 3.0 44.823452504430854 141.74153352062541 2.5 139.19773652780498 152.13513261589861 2.5 175.46768926140163 143.43149411677268 2.5 189.66999780453165 144.76297862262419 2.5 7.7258643895667554 164.51150181759007 2.5 118.4890300616527 154.99792237302279 2.5 43.093198737101453 168.40594233779609 2.5 50.799671169155204 158.00639342406421 2.5 91.331372507518054 157.91757070425663 2.5 192.76358377912348 176.76844868571652 2.5 180.6558323014861 171.21580013268138 2.5 23.700430360359064 182.07431464606205 2.5 16.41622293790963 196.25642053333877 2.5 25.393360406560149 8.1213487847195758 2 91.293523361629326 6.792991479417819 2 15.289076709750194 13.500030875839103 2 63.199477910920017 23.262755433311149 2 103.59162012024255 25.824520200769445 2 117.55895095667179 43.724116900851811 2 75.349189098315065 38.980432293555182 2 61.383909886381709 39.887373980356088 2 22.081678970383752 46.174785256340087 2 26.346777093492364 57.249908312454473 2 101.11771178348329 57.195518849530607 2 91.964803554319573 48.526963995021042 2 78.702140694455139 111.42761550610197 2 134.9100075680355 114.28698069975511 2 152.49475852361476 126.12267106348348 2 43.816656115906781 128.55428367368972 2.5 62.460361571615671 130.12908013070125 2 141.53045560090493 132.49167220942942 2 38.787551265022003 145.11617546020372 2 187.96709065432938 134.57411006426256 2.5 47.79105639106529 146.81221915081233 2 171.07711355511989 139.10926520388412 2 192.47266965705779 150.0354152202431 2 19.05846474957788 163.05720053769883 2 164.015511376304 144.32753006854801 2 27.995261934673536 164.41419940081448 2.5 125.01741490594132 154.49444241804872 2 37.898654905130186 150.54104502132964 2 49.114539433651871 152.83660797791336 2 100.18909102152969 160.38406922752736 2 196.85 164.50224827667603 2 23.31666398112456 188.03720335407777 2 80.033038623936775 15.509137583489119 2 2.75 18.08555000089785 2 101.31246719773816 16.161585416649206 2 110.24023096080457 31.099448535087827 2 13.521545897811702 38.703476477619596 2.5 16.99093605955165 59.248460456442182 2 73.003974354424813 58.1002297610246 2 69.596268695080809 70.050779490411614 2.5 176.81151403930718 76.502741024636919 2 138.67733297952049 71.877579984024266 2.5 133.40115843826527 72.92865572161584 2 189.5580834966247 81.959860746312387 2 58.634367161566495 80.952087149380773 2 67.655596872875478 103.21069132067487 2 71.473702430829732 133.43130542073854 2 153.37258920702135 137.31229370755253 2 10.638070568521275 127.40433770208649 2 45.639570554025354 133.64969387498166 2 137.81001835089404 146.08508583836826 2 175.215506745537 152.33023422225577 2 174.05957695517216 157.94758457569915 2 138.18813084898864 158.61311062704988 2 90.89772453192235 163.44673439400091 2 87.68509288464341 172.32340598987318 2 181.8274790456243 175.62278459123596 2.5 108.32609035170913 173.30327856604086 2 92.795572371097848 12.017244998117159 2 20.017099105600703 10.955461467027527 2.5 64.622947595375805 28.454958276082845 2 186.27213703634138 26.827645863623363 2 65.79715101588198 44.145228714329434 2 139.47446943241337 48.093427765792114 2 38.136436571747012 34.690370220973513 2 14.596345638432721 51.386488630748715 2 23.159651784572674 62.132187196190088 2 99.496479105932835 62.953587973251565 2.5 104.36811251425198 67.362479372815784 2 181.78932603228634 69.219113743151041 2 146.82732970117132 65.822013227975887 2 175.38125712735894 86.06316786958773 2 67.003821669448612 97.21166517636216 2 8.0668338913266968 85.758308942694484 2.5 126.603023110389 109.79091789207725 2 138.99862825119382 119.52473349995634 2.5 42.420292739119496 122.68411018867121 2 57.13395001595439 129.9802246765515 2 79.488435786243272 122.01936724220823 2 188.76421579053053 139.54394613004567 2 136.52329765359144 140.68119622786881 2 175.50629596898773 147.60799989858253 2 194.12901034621774 155.62891771290347 2 156.66846346816865 141.68865189598895 2 96.385037906626465 155.89276814125137 2 196.85 169.30077111572697 2 186.46494445149321 177.80001865329075 2 18.855951866648006 179.91081444721857 2.5 62.11703653860701 12.531384706379301 2 174.72516721707694 29.288075382402276 2 112.79153076052177 35.540952981589939 2 61.047410249899279 34.273358338744266 2 145.20978945093515 27.43003904019535 2 187.79952373117865 70.210806429383808 2 177.99912434587273 71.89049128496832 2 4.5336925509095964 121.41334010006464 2 18.374962279385176 123.76374029402309 2.5 13.304337320313657 165.881120790946 2 37.829100051077639 167.32339915968441 2.5 89.618071208905647 167.99127699032002 2 144.06688896091862 183.94750474965062 2 17.980657668033267 190.54855197860812 2 197.25 23.623706608523111 2 81.32591313747325 43.880106262560233 2 76.152412797984994 53.761917897141501 2 109.27711519965558 72.485222129363265 2 171.99379012839475 90.625188003463549 2 64.774005059248324 90.096634345562649 2 80.110727895367546 106.11806648345242 2 165.67569374396857 138.88166577813641 2 16.597919335550383 184.44656026540665 2 87.371106316282962 13.662409057281394 2 7.7280605897358532 16.562539903854258 2 29.189888424418875 18.432068316497205 2 110.59850239894284 14.141351025097459 2 105.76539949867497 33.087061148554682 2 36.954383627737528 39.77419392472089 2 10.073400219432681 34.153195588214842 2 191.39816241923546 76.534138686037394 2 174.09155971679897 166.0735679387569 2.5 23.820856505127939 162.03666156363155 2 6.3536356910025917 169.02541879151127 2 47.78222199944711 170.52967228072259 2 141.36484074020998 166.44402161088288 2 82.801539509470786 174.20230095594357 2 105.86482941218726 165.0454216321499 2 68.039454038800073 16.840190354559546 2 54.3463889329865 29.836495504512882 2 33.06112965634869 21.189224877223406 2 191.58238622186028 24.762793083833913 2 144.50929018706915 50.769092699645498 2 96.426820688298093 46.789062502631928 2 127.60911248987622 84.8357130224434 2 15.433294949551666 86.751626675995354 2 51.747490259621813 128.55692593297115 2 77.669018836802692 116.4737045808336 2 142.02794808489952 126.69716421640973 2 196.37416387609667 159.95583785396028 2 49.277102073748004 135.77255001830878 2 181.85806640975611 134.45787885556118 2 108.27557169598103 168.41285638688757 2 135.20056422792109 44.875679383361366 2 108.79259290045778 78.470067076980285 2 2.75 86.46345164944934 2 148.90616528562899 54.983352720248469 2 11.727349034630574 118.35137578015345 2 113.51534925222632 10.203513554572895 2 65.960704694915478 4.8212520653005564 2 37.175338821617274 18.310956658217478 2 55.346567856761993 120.77685089976957 2 66.498079129424255 133.4434921067101 2 193.96497034851316 20.70721603627452 2 169.86733217739177 71.432925668874162 2 82.599133198305552 179.13104385204571 2 115.19487527668795 5.9362800662677664 2 130.57309124067879 21.432272908395667 2.5 150.62008242503032 60.857387434637175 2 16.368562429572513 118.93679577974264 2 175.71316849941223 162.42504557183739 2 106.57109038792325 16.862480968448033 2 32.649210522419281 166.30787803510552 2 192.02044270021079 173.67905000782798 2 178.33391924413786 167.01412856545741 2 6.6120362133212591 128.45916387080985 2 </DataArray>
</Points>
<Cells>
<DataArray Name="connectivity" format="ascii" type="Int32">0</DataArray>
<DataArray Name="offsets" format="ascii" type="Int32">0</DataArray>
<DataArray Name="types" format="ascii" type="UInt8">1</DataArray>
</Cells>
<PointData>
<DataArray Name="Points" NumberOfComponents="3" format="ascii" type="Float32">0 0 0 35.019598594336031 3.9587261158641822 2.5 74.336914342360885 16.430186028043405 3.0 24.129520796310572 17.913728108746238 3.0 61.708975845752065 17.752498995118049 2.5 103.06092322744294 20.814340320355889 3.0 139.44598053059224 25.260960372005417 2.5 21.798959099180518 35.391681349132476 2.5 180.93276004189744 26.74707791039684 2.5 111.07822216984555 40.315256442251332 2.5 68.714136457858302 31.903343156062409 2.5 27.430427543434686 43.696691172014773 2.5 101.9901704161725 51.855603448202316 3.0 93.771824722605103 60.309407095685664 2.5 71.241300578486104 64.494637631301273 2.5 171.63229458001419 76.836743212480627 2.5 181.19150701464244 80.369129762948702 3.0 60.541401626682095 89.563334206578475 2.5 178.88175225186612 130.59042283068237 2.5 40.900308540745854 113.19295750060694 2.5 76.437732632911036 130.90938340261218 2.5 150.73733766020641 132.13579440440836 2.5 15.206662779893866 129.14769446464379 2.5 2.95 125.83135996356668 2.5 33.670571486813394 143.09320597038908 3.0 44.823452504430854 141.74153352062541 2.5 139.19773652780498 152.13513261589861 2.5 175.46768926140163 143.43149411677268 2.5 189.66999780453165 144.76297862262419 2.5 7.7258643895667554 164.51150181759007 2.5 118.4890300616527 154.99792237302279 2.5 43.093198737101453 168.40594233779609 2.5 50.799671169155204 158.00639342406421 2.5 91.331372507518054 157.91757070425663 2.5 192.76358377912348 176.76844868571652 2.5 180.6558323014861 171.21580013268138 2.5 23.700430360359064 182.07431464606205 2.5 16.41622293790963 196.25642053333877 2.5 25.393360406560149 8.1213487847195758 2 91.293523361629326 6.792991479417819 2 15.289076709750194 13.500030875839103 2 63.199477910920017 23.262755433311149 2 103.59162012024255 25.824520200769445 2 117.55895095667179 43.724116900851811 2 75.349189098315065 38.980432293555182 2 61.383909886381709 39.887373980356088 2 22.081678970383752 46.174785256340087 2 26.346777093492364 57.249908312454473 2 101.11771178348329 57.195518849530607 2 91.964803554319573 48.526963995021042 2 78.702140694455139 111.42761550610197 2 134.9100075680355 114.28698069975511 2 152.49475852361476 126.12267106348348 2 43.816656115906781 128.55428367368972 2.5 62.460361571615671 130.12908013070125 2 141.53045560090493 132.49167220942942 2 38.787551265022003 145.11617546020372 2 187.96709065432938 134.57411006426256 2.5 47.79105639106529 146.81221915081233 2 171.07711355511989 139.10926520388412 2 192.47266965705779 150.0354152202431 2 19.05846474957788 163.05720053769883 2 164.015511376304 144.32753006854801 2 27.995261934673536 164.41419940081448 2.5 125.01741490594132 154.49444241804872 2 37.898654905130186 150.54104502132964 2 49.114539433651871 152.83660797791336 2 100.18909102152969 160.38406922752736 2 196.85 164.50224827667603 2 23.31666398112456 188.03720335407777 2 80.033038623936775 15.509137583489119 2 2.75 18.08555000089785 2 101.31246719773816 16.161585416649206 2 110.24023096080457 31.099448535087827 2 13.521545897811702 38.703476477619596 2.5 16.99093605955165 59.248460456442182 2 73.003974354424813 58.1002297610246 2 69.596268695080809 70.050779490411614 2.5 176.81151403930718 76.502741024636919 2 138.67733297952049 71.877579984024266 2.5 133.40115843826527 72.92865572161584 2 189.5580834966247 81.959860746312387 2 58.634367161566495 80.952087149380773 2 67.655596872875478 103.21069132067487 2 71.473702430829732 133.43130542073854 2 153.37258920702135 137.31229370755253 2 10.638070568521275 127.40433770208649 2 45.639570554025354 133.64969387498166 2 137.81001835089404 146.08508583836826 2 175.215506745537 152.33023422225577 2 174.05957695517216 157.94758457569915 2 138.18813084898864 158.61311062704988 2 90.89772453192235 163.44673439400091 2 87.68509288464341 172.32340598987318 2 181.8274790456243 175.62278459123596 2.5 108.32609035170913 173.30327856604086 2 92.795572371097848 12.017244998117159 2 20.017099105600703 10.955461467027527 2.5 64.622947595375805 28.454958276082845 2 186.27213703634138 26.827645863623363 2 65.79715101588198 44.145228714329434 2 139.47446943241337 48.093427765792114 2 38.136436571747012 34.690370220973513 2 14.596345638432721 51.386488630748715 2 23.159651784572674 62.132187196190088 2 99.496479105932835 62.953587973251565 2.5 104.36811251425198 67.362479372815784 2 181.78932603228634 69.219113743151041 2 146.82732970117132 65.822013227975887 2 175.38125712735894 86.06316786958773 2 67.003821669448612 97.21166517636216 2 8.0668338913266968 85.758308942694484 2.5 126.603023110389 109.79091789207725 2 138.99862825119382 119.52473349995634 2.5 42.420292739119496 122.68411018867121 2 57.13395001595439 129.9802246765515 2 79.488435786243272 122.01936724220823 2 188.76421579053053 139.54394613004567 2 136.52329765359144 140.68119622786881 2 175.50629596898773 147.60799989858253 2 194.12901034621774 155.62891771290347 2 156.66846346816865 141.68865189598895 2 96.385037906626465 155.89276814125137 2 196.85 169.30077111572697 2 186.46494445149321 177.80001865329075 2 18.855951866648006 179.91081444721857 2.5 62.11703653860701 12.531384706379301 2 174.72516721707694 29.288075382402276 2 112.79153076052177 35.540952981589939 2 61.047410249899279 34.273358338744266 2 145.20978945093515 27.43003904019535 2 187.79952373117865 70.210806429383808 2 177.99912434587273 71.89049128496832 2 4.5336925509095964 121.41334010006464 2 18.374962279385176 123.76374029402309 2.5 13.304337320313657 165.881120790946 2 37.829100051077639 167.32339915968441 2.5 89.618071208905647 167.99127699032002 2 144.06688896091862 183.94750474965062 2 17.980657668033267 190.54855197860812 2 197.25 23.623706608523111 2 81.32591313747325 43.880106262560233 2 76.152412797984994 53.761917897141501 2 109.27711519965558 72.485222129363265 2 171.99379012839475 90.625188003463549 2 64.774005059248324 90.096634345562649 2 80.110727895367546 106.11806648345242 2 165.67569374396857 138.88166577813641 2 16.597919335550383 184.44656026540665 2 87.371106316282962 13.662409057281394 2 7.7280605897358532 16.562539903854258 2 29.189888424418875 18.432068316497205 2 110.59850239894284 14.141351025097459 2 105.76539949867497 33.087061148554682 2 36.954383627737528 39.77419392472089 2 10.073400219432681 34.153195588214842 2 191.39816241923546 76.534138686037394 2 174.09155971679897 166.0735679387569 2.5 23.820856505127939 162.03666156363155 2 6.3536356910025917 169.02541879151127 2 47.78222199944711 170.52967228072259 2 141.36484074020998 166.44402161088288 2 82.801539509470786 174.20230095594357 2 105.86482941218726 165.0454216321499 2 68.039454038800073 16.840190354559546 2 54.3463889329865 29.836495504512882 2 33.06112965634869 21.189224877223406 2 191.58238622186028 24.762793083833913 2 144.50929018706915 50.769092699645498 2 96.426820688298093 46.789062502631928 2 127.60911248987622 84.8357130224434 2 15.433294949551666 86.751626675995354 2 51.747490259621813 128.55692593297115 2 77.669018836802692 116.4737045808336 2 142.02794808489952 126.69716421640973 2 196.37416387609667 159.95583785396028 2 49.277102073748004 135.77255001830878 2 181.85806640975611 134.45787885556118 2 108.27557169598103 168.41285638688757 2 135.20056422792109 44.875679383361366 2 108.79259290045778 78.470067076980285 2 2.75 86.46345164944934 2 148.90616528562899 54.983352720248469 2 11.727349034630574 118.35137578015345 2 113.51534925222632 10.203513554572895 2 65.960704694915478 4.8212520653005564 2 37.175338821617274 18.310956658217478 2 55.346567856761993 120.77685089976957 2 66.498079129424255 133.4434921067101 2 193.96497034851316 20.70721603627452 2 169.86733217739177 71.432925668874162 2 82.599133198305552 179.13104385204571 2 115.19487527668795 5.9362800662677664 2 130.57309124067879 21.432272908395667 2.5 150.62008242503032 60.857387434637175 2 16.368562429572513 118.93679577974264 2 175.71316849941223 162.42504557183739 2 106.57109038792325 16.862480968448033 2 32.649210522419281 166.30787803510552 2 192.02044270021079 173.67905000782798 2 178.33391924413786 167.01412856545741 2 6.6120362133212591 128.45916387080985 2 </DataArray>
<DataArray Name="forces" NumberOfComponents="3" format="ascii" type="Float32">0 0 0 0.18896158620295711 -0.10560214605205454 0.0 -0.094454768671551337 -0.030423881238064165 0.0 0.25704962234625289 0.26459230322211014 0.0 -0.094438770965181856 0.14328516036831415 0.0 0.52408617895860043 0.059271366730154873 0.0 0.34181426040900043 0.03216939391984576 0.0 -0.082271317327090143 0.44847539556020988 0.0 -0.12324224542496481 0.028905339607493197 0.0 -0.057670767467360051 0.010790704080909763 0.0 -0.30419739377947153 0.43717139246555164 0.0 0.092240519597117571 0.35763007871732766 0.0 0.17437463137580217 0.035224690568412709 0.0 0.50099039953555535 0.023990659329273134 0.0 -0.025944127667461347 -0.12818906881093786 0.0 -0.11989984874126003 0.035991240366719544 0.0 -0.060967344095297055 -0.13505675877825118 0.0 0.14498604661863368 -0.11138249160393993 0.0 -0.25133262412323742 -0.12605059526534435 0.0 0.35292692820834315 0.12137423606082487 0.0 -0.17008057746559263 -0.16904923912146874 0.0 0.50196486608466306 0.0086162919746499145 0.0 -0.27438297343244611 -0.6346237004840084 0.0 -1.3397955504185153 -0.48715277612681562 0.0 0.29226310651119608 -0.0047251670321961647 0.0 0.18310476906832873 0.061000153382583112 0.0 -0.25029430333836655 0.20336072126053301 0.0 -0.26648085631499757 -0.20992392594273457 0.0 -0.20796551581277345 0.20843272487280701 0.0 -0.097905258597331207 0.47844984990229311 0.0 0.26303124644746662 0.13463847478689916 0.0 0.20395768617841334 0.21991606668441693 0.0 -0.24670828247359411 0.020046708534071728 0.0 -0.16344295745983495 0.040213641946349965 0.0 -0.041832706616417914 -0.086388599870479046 0.0 -0.40101031273791499 -0.1230278006233827 0.0 -0.22394577459792853 0.12575844609779696 0.0 -0.36162213989270919 0.0045523139792188888 0.0 0.19200902642057605 0.34840625872941355 0.0 -0.34015444512562049 0.47280550712812491 0.0 0.23088938754211835 0.65667776156867186 0.0 0.035187702279511429 0.14483296547452784 0.0 0.06302193117372612 0.14894591181588135 0.0 0.13274310817803986 0.36974966531406284 0.0 0.10847431569772925 0.43666497360964679 0.0 0.26504441449930977 -0.16278450873798711 0.0 0.1025472576042924 0.18501983130569763 0.0 -0.19733356878700048 -0.10558434514734949 0.0 -0.019307271795668407 -0.080407489325099821 0.0 0.0080287236035315179 0.034981579031672094 0.0 0.23914777930916684 0.14329308971146448 0.0 0.12125613987453376 -0.12641870266879396 0.0 0.025880432814164654 0.0072530915367046214 0.0 0.45711333690887501 -0.14643484522673991 0.0 -0.32891566384998938 -0.51020206152370162 0.0 -0.0048267600687044165 0.10372164038323317 0.0 0.2582601272469639 -0.043843014859244356 0.0 -0.08829442069368626 0.013616600090506248 0.0 0.051525434242139734 0.039196883422267681 0.0 -0.14122114179879544 -0.57642616393006951 0.0 0.18615058237913851 0.05576098454595102 0.0 0.014413689061177237 0.24801198685680137 0.0 0.40111999367387369 -0.17564758780700451 0.0 0.12023209096850518 0.19055178900474967 0.0 -0.4207805324420098 0.11088983022841523 0.0 0.16808864933993095 0.11829318996962324 0.0 -0.095453683894167307 -0.0050494072381176789 0.0 -0.2960572992800411 0.22545266413712872 0.0 2.6155404726590792 -0.017002719892997953 0.0 -0.30310348581744972 0.090264748144927964 0.0 -0.26548957571313214 -0.083585065857521401 0.0 -1.6918240285920982 0.54897279925063991 0.0 -0.046620047748178295 0.11505542162121875 0.0 0.14475943306564421 -0.066496506649508569 0.0 -0.088274507589416518 0.095735429430204119 0.0 0.46114690229119892 0.08545394872581813 0.0 -0.034205580402711933 -0.2860944835333451 0.0 0.090475238442107392 -0.076463958255496678 0.0 0.15934866157518685 -0.10346060632262044 0.0 0.082863383384286893 0.032708302449008575 0.0 -0.035497188926905232 0.11388325641945746 0.0 0.36784337808974177 0.060723934669456303 0.0 -0.076771252985721739 -0.10641924559935002 0.0 -0.32346018752043948 -0.053866247816176216 0.0 -0.33999965749966354 -0.2953573415369693 0.0 -0.15054487079546308 -0.35342412896100017 0.0 -0.18010970943438753 -0.55129336364702342 0.0 0.080073028422074033 0.088102741820413083 0.0 -0.1088114541776119 0.10894745149318136 0.0 -0.23229011415078893 0.17620743432448482 0.0 -0.092716287882712578 0.049897150002483626 0.0 -0.25709373142485553 -0.13505444825071392 0.0 -0.077706426484792701 -0.37377240247275922 0.0 -0.63132030014770102 0.58454226834355216 0.0 -0.038726467858902991 -0.1861654373595478 0.0 -0.070399467755831155 0.16373662354146337 0.0 0.11685598385766985 -0.049304885056414727 0.0 -0.03565061586107654 0.07944140834303226 0.0 -0.23695237714523767 0.25875224246515754 0.0 -0.19583790247172905 0.11920698820157216 0.0 0.28458945259565893 -0.1836471108979284 0.0 -0.041969618383422724 -0.027215323239287437 0.0 0.041735052414208051 0.017305883465702443 0.0 0.23525315976263017 -0.28628700522237377 0.0 0.36964495956018356 -0.35229665578234887 0.0 0.50207050248443064 0.09056250709235536 0.0 0.53480314286272712 0.12689626272067389 0.0 0.046860140936131334 0.13303085898035305 0.0 0.3641609773384139 0.039432282365742477 0.0 -0.74768717755433989 0.017385983962632023 0.0 -0.075086880624404939 0.21606126235354606 0.0 -0.11354660589239063 -0.068385681954642674 0.0 0.072075404949836552 -0.50219177836226547 0.0 0.10554773336128367 -0.15636576110948452 0.0 0.40351063698232081 -0.41408325547920272 0.0 -0.21985215591003138 -0.18192897724280788 0.0 -0.13353315037841884 -0.016667975269094526 0.0 -0.17675212443524513 0.06401134629693872 0.0 0.19883440749093961 -0.015117442976036365 0.0 -0.036225723090744406 -0.24980839119106268 0.0 -0.12067011328417643 -0.10254589075836512 0.0 0.12427467579043994 -0.36777531918314682 0.0 -0.4527018589456962 0.24569202248316521 0.0 2.2301058684173403 -0.28080791316158926 0.0 -0.13302007904699736 -0.06543013044169288 0.0 -0.14848778457488754 0.24629203833826574 0.0 0.14190224434360965 0.17423569238377234 0.0 -0.41196706944882822 0.15514683893563691 0.0 0.54273276908667445 -0.19144208811385374 0.0 -0.022231861818526648 -0.38144318786665266 0.0 0.023020536798577795 -0.16470933203299087 0.0 -0.0368867367536867 0.36014564239367308 0.0 -0.71674310763444815 -0.69750374278732596 0.0 0.11333856470917114 0.071906702046588666 0.0 0.17980989340814302 -0.47788661651607778 0.0 0.054273825487114069 0.36563968840755223 0.0 0.33439183361107383 0.10414094398929308 0.0 1.5235412336961935 0.2171655441352911 0.0 -0.10999680739989393 0.19322180499645469 0.0 -0.36113311686095828 0.1196567430957301 0.0 0.83179282166254132 0.055563053233466109 0.0 -0.3135053653646257 0.18070664329674996 0.0 0.19542421558596734 -0.092353627635694546 0.0 0.046870889996560472 0.12517307618096524 0.0 -0.4631590020383769 0.18413419032213696 0.0 -0.068814125754405375 0.035783798579073101 0.0 -0.22753217601742937 0.0092747503892494226 0.0 -0.13006328727032962 -0.37904502265984746 0.0 0.065547081406303304 0.033118354815690365 0.0 -0.053747397946122044 -0.085706535513598525 0.0 -0.16292705003242616 0.41363246531947279 0.0 -0.13767078410930012 0.093899195293621784 0.0 0.20712006378509296 0.35399690294817765 0.0 0.3299855033873153 0.013578443730741435 0.0 -0.11533495852476638 -0.023499095287430549 0.0 0.0 0.0 0.0 0.19792058518957625 0.32394535276101433 0.0 -0.12408439692493278 0.40897618703370392 0.0 0.089105036168924956 0.23933910883203063 0.0 0.056467280211596416 0.36373153391240842 0.0 0.16363193809953644 -0.11632868052238668 0.0 -0.025354412742460641 0.44741159287765719 0.0 -0.11367702678988989 0.22824379349058066 0.0 -0.56308897802265911 0.24840308523746613 0.0 -0.06848909515503003 0.13482557075384277 0.0 0.10244333726045121 -0.37689664274844564 0.0 0.35881617036934038 -0.10451521078042658 0.0 0.20444047476158711 0.32857161450600914 0.0 0.22520122476172386 -0.30465833734844949 0.0 0.17143748964338559 -0.037933415192653697 0.0 -0.28643408894519307 0.33134719284545983 0.0 0.19489168471693019 0.43779744471623061 0.0 -0.29544351439552491 0.10636543568743774 0.0 0.064199655779044601 0.1290005126273841 0.0 0.2889818349307306 0.18363281031093021 0.0 0.79422588586798692 0.04683784065666341 0.0 0.16787655443850569 -0.22983047058930517 0.0 -0.43346580374376553 0.082494249602488079 0.0 0.10628221691546325 0.037313138748922281 0.0 -0.28952884799923789 0.23018716826148594 0.0 0.059854046574923242 -0.11559002733259977 0.0 -0.5304380739331368 0.15538507306382013 0.0 0.011552922707490924 -0.0022181124824950139 0.0 0.0047935843369075748 0.13032524734791348 0.0 -0.11213693353630161 0.29211732372826571 0.0 0.28713154820597475 -0.18455937028665756 0.0 0.3272128756331068 0.0086121668306462368 0.0 0.47906414613240472 -0.25704502410004809 0.0 -0.63847417309175569 -0.089158837393083445 0.0 0.081254841205064599 0.041726738963961729 0.0 0.030247223341505321 0.12458783394563794 0.0 -0.26985630722536902 0.088757245116820371 0.0 -0.26634539967470089 0.3758227583209966 0.0 -0.20088582943802935 0.021340809693782437 0.0 0.071632500085816952 0.35125838540605447 0.0 -0.068925948252396729 -0.34464872182909445 0.0 -0.067935364096491827 0.087418634468975021 0.0 0.018646411652399442 -0.106766997922151 0.0 0.20956769617456605 0.14026645318616821 0.0 0.37177933553786507 -0.29617136191995908 0.0 -0.074639354879987074 -0.14545725601983042 0.0 -0.027071957961562587 -0.1547833687489818 0.0 </DataArray>
<DataArray Name="radii" format="ascii" type="Float32">0 3.1500000000000004 3.2500000000000004 3.2500000000000004 3.2500000000000004 3.1500000000000004 3.2500000000000004 3.2500000000000004 3.0500000000000003 3.1500000000000004 3.1500000000000004 3.2500000000000004 3.0500000000000003 3.3500000000000005 3.2500000000000004 2.75 3.5500000000000007 3.2500000000000004 2.85 2.85 3.1500000000000004 3.2500000000000004 3.3500000000000005 2.95 3.5500000000000007 3.650000000000001 3.2500000000000004 3.2500000000000004 3.5500000000000007 3.2500000000000004 3.0500000000000003 2.95 3.3500000000000005 3.1500000000000004 3.650000000000001 3.1500000000000004 3.5500000000000007 2.75 3.4500000000000006 2.85 3.3500000000000005 3.2500000000000004 2.85 2.75 2.75 3.2500000000000004 3.2500000000000004 2.85 3.2500000000000004 2.95 2.75 3.1500000000000004 2.75 3.650000000000001 3.1500000000000004 3.2500000000000004 3.1500000000000004 3.2500000000000004 3.650000000000001 3.2500000000000004 3.5500000000000007 3.2500000000000004 3.2500000000000004 3.1500000000000004 3.2500000000000004 3.650000000000001 3.1500000000000004 3.1500000000000004 3.1500000000000004 3.5500000000000007 2.85 2.75 3.1500000000000004 3.2500000000000004 2.85 3.2500000000000004 2.85 2.85 3.5500000000000007 3.1500000000000004 3.1500000000000004 2.85 2.75 3.2500000000000004 3.1500000000000004 2.75 3.2500000000000004 2.75 3.2500000000000004 3.5500000000000007 3.2500000000000004 2.95 2.75 3.1500000000000004 3.650000000000001 2.85 3.1500000000000004 3.1500000000000004 2.75 3.0500000000000003 2.95 2.85 2.75 3.1500000000000004 2.75 3.650000000000001 3.2500000000000004 3.2500000000000004 2.85 3.0500000000000003 3.2500000000000004 3.0500000000000003 2.85 3.2500000000000004 3.1500000000000004 2.75 3.1500000000000004 2.95 3.2500000000000004 2.75 3.1500000000000004 3.2500000000000004 3.1500000000000004 3.1500000000000004 3.650000000000001 2.75 2.85 2.85 2.75 2.75 2.95 3.2500000000000004 2.75 2.85 2.85 3.1500000000000004 3.1500000000000004 2.75 2.75 3.1500000000000004 2.75 2.75 2.85 2.75 2.85 2.85 3.1500000000000004 3.2500000000000004 2.75 3.1500000000000004 3.1500000000000004 3.1500000000000004 2.85 2.75 3.1500000000000004 2.85 2.85 3.1500000000000004 3.1500000000000004 2.85 2.75 2.85 2.75 2.85 3.2500000000000004 2.75 2.85 2.75 2.85 2.75 2.85 2.75 3.1500000000000004 2.95 3.2500000000000004 2.75 2.75 2.85 2.75 2.85 2.75 2.75 2.85 2.85 2.85 2.75 2.75 2.75 2.75 2.75 2.75 2.75 2.85 2.85 2.85 2.85 2.75 2.85 2.85 2.85 2.85 2.75 </DataArray>
</PointData>
<CellData/>
</Piece>
</UnstructuredGrid>
</VTKFile>
