<?xml version="1.0" ?>
<VTKFile byte_order="LittleEndian" type="UnstructuredGrid" version="0.1">
<UnstructuredGrid>
<Piece NumberOfCells="0" NumberOfPoints="769">
<Points>
<DataArray NumberOfComponents="3" format="ascii" type="Float32">86.801418545242001 9.0077395278248336 3.0 127.88485831811796 9.5703028226215494 3.0 3.6663557578910013 23.954369787793222 3.0 196.49724777622487 38.389657237369789 3.0 149.11818704486987 34.83139527601503 3.0 50.493678297273121 47.62318916044763 3.0 11.591355922920098 44.388945532536852 3.0 155.78261497762995 40.033227710001221 3.0 197.41556755420214 55.17495423060771 3.0 19.43544099574434 51.864832329542701 3.0 79.964470894998186 64.505545068755325 3.0 182.6057973717962 61.232467679931567 3.0 101.09786954092404 73.733288387380327 3.0 171.82911769936641 74.750335310928776 3.0 141.65308846941733 78.765549696808876 3.0 135.70032701197022 80.447383997857244 3.0 71.252821922288163 81.339199069302566 3.0 87.084838586527027 83.640804222132317 3.0 184.5361230436236 85.767315115804237 3.0 7.1828700554739173 98.301642844036323 3.0 179.11659493274635 106.36070656781496 3.0 75.100240968722247 103.08305853177312 3.0 134.92897515746401 98.906738370740854 3.0 162.58773224117638 110.34672731776909 3.0 2.5844324457978454 113.1154238748969 3.0 185.02349046260099 114.03836714940456 3.0 141.47312606773875 115.05233554826449 3.0 68.055233406482955 124.31210924003598 3.0 24.364784195462622 124.11689294711559 3.0 197.41556755420214 136.24319291252741 3.0 10.274495926699547 148.87842300674305 3.0 18.588655911878323 158.70838917600506 3.0 166.81547182228454 149.5424980781014 3.0 32.048484152768644 155.76416693815793 3.0 161.04411897063102 161.48849279183909 3.0 146.02475061685351 164.26470528038644 3.0 165.66251777395988 166.16697703370929 3.0 96.53052924935659 167.54108452999074 3.0 101.78553038965005 170.11552689364567 3.0 146.50033306079257 179.5393202262934 3.0 184.74704746680607 183.50027745153685 3.0 193.76795052440258 194.1095835870608 3.0 91.942150874682824 197.41556755420214 3.0 15.741895043923289 197.61556755420216 3.0 188.35803401786686 194.6969723063373 3.0 118.17743910763903 13.101509543502019 2 75.141654150745026 7.7922901027487272 2 13.136081505215843 26.47683503712744 2 135.07155076379559 39.261842687742586 2 24.241292747005364 27.963036085226413 2 181.06348338494857 34.349924760375686 2 193.65024056483171 31.198499172499677 2 119.33168913974721 42.220782219760295 2 73.66746286126903 40.913623594977118 2 139.53235672502225 39.352487151195035 2 30.424889394960335 34.340745132003278 2 163.71066586763277 54.559492786572669 2 186.85186245305516 54.779398316514445 2 80.925399802188011 54.348386143750012 2 197.41556755420214 67.322422115110854 2 78.135125026649447 71.295403796743074 2 105.44108993906052 75.259603407659583 2 173.28589929659717 61.308974217459834 2 151.40323887743591 68.898291692054215 2 139.4849906788518 87.837578104672261 2 75.828209118847752 90.851894924822233 2 96.015158850449325 80.677053638502301 2 171.84645682490464 96.542465836467514 2 68.154073584502925 87.872708094338364 2 190.16756838918189 91.208674063095359 2 2.5844324457978454 92.040719280744653 2 195.7646231490958 106.67361344242416 2 75.712280273079386 111.38993888424018 2 152.35589770058553 106.57623899604016 2 9.9593875979045752 108.04922457358903 2 192.58073842470981 120.13893616312207 2 151.5364383195255 124.2959056274814 2 175.14478084123584 115.85079362440271 2 71.934908503778232 116.68688046271424 2 27.642908295819062 130.95564605602505 2 22.354282666679378 137.86643865661694 2 2.5844324457978454 145.60437320321424 2 15.980603272376888 135.20225527304416 2 141.79922508047926 138.59080061108421 2 156.59562244428037 147.08111819972919 2 9.1941664009540727 152.04175433213734 2 151.7497265688568 154.85726558342998 2 156.80296864504055 171.35141932698122 2 92.282988384403922 176.97013379428216 2 174.9100651259084 179.91355352160701 2 105.14672353365006 176.12556731716452 2 151.09634030201246 187.00567530480581 2 191.17476416738606 180.83988470939644 2 197.41556755420214 188.43162856749518 2 87.941719840008815 189.03506629888662 2 10.135078736354485 189.63002887569007 2 171.49444723840278 197.41556755420214 2 30.005681710913912 2.6290979429048793 2 123.02843956725549 2.5844324457978454 2 77.836951817315196 12.012363928572983 2 3.0041966305285395 19.344699587490819 2 27.950843768808369 22.760107765580219 2 55.860692520596196 16.544944375996039 2 125.08506461186684 29.79228487726585 2 20.186673505052742 30.257359241680692 2 171.10281155442155 37.022979907355548 2 186.36711891393836 32.075309019004983 2 70.202825454981053 36.635420421057418 2 146.04927003814311 43.11534938788833 2 31.837297862970981 39.921963752021838 2 154.60614617484094 51.503114777120203 2 193.17371396854443 47.15433986980473 2 106.81366783201123 57.93387962603213 2 89.451356876655524 56.344403728972964 2 193.23845719017169 67.447456777693873 2 92.31817743032866 71.923517013728471 2 75.364438107199746 82.359198260907689 2 80.177145724622335 91.643126963352742 2 59.282580459850259 84.269921304522995 2 180.56576398851811 93.722994583019741 2 14.318967323727763 92.72858736683817 2 174.83768692458253 100.50547709072195 2 138.13320060965137 102.25489770944658 2 168.48322933900442 108.3841418297233 2 7.3016616932133083 116.12095908910115 2 193.22904403894196 112.21817395826477 2 145.35840090873938 112.14466931347863 2 192.03334623734565 126.4096173314048 2 25.880949146262758 120.05651109628403 2 81.512755973844861 129.57725296961453 2 32.750463752255243 126.63293109259396 2 151.2804395694113 137.67659779375884 2 24.400366808860067 134.60990216630481 2 29.499269342484787 146.66974039285395 2 196.71895308162226 139.36343489660172 2 43.533031581760035 135.04469104674686 2 11.634613379119441 145.03081971608799 2 197.41556755420214 147.47575919674682 2 25.118802708054183 150.2602775689648 2 26.11354365205236 158.09246610462435 2 169.26654398484354 159.31222442989372 2 2.5844324457978454 161.77689059671982 2 121.70355290341938 158.03383530797635 2 45.447210913951452 156.17754445329169 2 50.868251984068081 165.79608263636021 2 92.481853691729086 164.94379470633839 2 161.90256566114761 165.26552073519562 2 152.35716210136314 178.81698308431314 2 29.792984290734918 181.06227526817781 2 175.72643653657667 186.27680244130028 2 190.79993995878593 192.88252811952623 2 85.717794100393135 192.82886303816932 2 8.2659016593405212 193.75976630284026 2 177.34978715139709 192.73192561238341 2 114.81234888928026 16.362169705270684 2 67.269760226679438 11.319710457431915 2 12.748756920017236 22.112831337172157 2 62.365865877894798 29.237821573490834 2 115.91491689934281 21.200435544016088 2 136.8877149126854 30.143380655874569 2 39.297279351776467 24.065385550522375 2 178.12637101052542 37.919488881045829 2 120.24230105856202 31.038772742668723 2 35.311885708833174 35.281150534543414 2 159.84787782578505 42.671419462587245 2 185.06339943782987 46.682434609459335 2 25.148810019903809 63.439768782254731 2 96.819492443360105 52.561182334081408 2 86.809788288277161 67.734514763208921 2 195.4876268213232 58.780826973916056 2 89.826584710655112 75.319354333725514 2 131.83838255403069 82.513064501678258 2 81.473924407774589 101.55138845054918 2 89.736342688770648 95.732231366274689 2 188.8755096639519 99.354831362175673 2 197.41556755420214 96.251045836529343 2 70.858290058612297 112.38285687969675 2 160.62898062171118 103.6696721223645 2 5.7728562910033947 107.16361230035906 2 187.79761533030165 118.45313613212271 2 173.92760175236648 123.61370234489654 2 56.731011170338078 128.04915903394541 2 34.062009391182293 138.28638679815745 2 146.243805617471 128.9094211398091 2 18.947865213795438 144.99253339840661 2 3.3673501151250091 135.29027515201511 2 37.660951289116888 136.19454298438436 2 13.473868857771567 140.11641391030375 2 173.23280629862361 147.68755835768189 2 16.865570079720026 151.998358294159 2 163.1102626954499 150.15782705335064 2 36.111629996677202 158.76358690464244 2 2.5844324457978454 156.6801073431881 2 125.72832743499545 159.48526859242523 2 42.71602162490673 159.98390259053753 2 44.975003868758712 151.65777999120286 2 142.92681616093509 156.31945781774243 2 163.84461410171676 176.62227395176603 2 95.835518402011786 184.04261274847318 2 172.79392186375617 174.77048731228788 2 106.10719157763998 185.15966360612714 2 160.80870638486684 180.35578253380473 2 197.41556755420214 184.73776824181977 2 79.005169790207574 187.57801410100632 2 18.876966237679973 181.54758542031385 2 175.50891892884795 197.41556755420214 2 39.212757274458056 2.604196630528539 2 79.985820273894603 7.2993562670614169 2 131.48125351404431 5.1298279607420305 2 9.1467565575573904 27.324801971923709 2 18.986008128704597 15.9523506801522 2 129.58297079341108 28.48281153183737 2 191.59581070228271 38.966125480897929 2 114.25090008537848 35.069474378509305 2 64.279178794060272 34.678971495462065 2 16.484748829729753 44.581953903066072 2 151.06896951589684 48.062907749858191 2 197.41556755420214 47.912309376318703 2 21.400381057663882 57.097923271016903 2 82.542205085596279 72.184780045542453 2 176.61901814881963 70.785321081377148 2 147.19915595233959 76.694614931019487 2 130.59672126751008 77.74384909231749 2 75.54295433739783 77.839196530220164 2 82.733262546612281 85.900369538299344 2 192.24310447763125 87.341999804362558 2 15.378392053210312 101.38174721599486 2 187.2315954772877 103.29109155453679 2 72.34630546516405 99.557216468426503 2 129.73393557116091 101.83211904754401 2 157.93570912496855 111.10688960255635 2 181.56618265677153 110.40425356505155 2 142.17739650214338 109.78531153132164 2 184.0901631767137 125.06495263991086 2 29.6046379426895 116.56890774889344 2 67.138782885171707 128.24633778870862 2 71.989618482593443 128.78360172130115 2 145.8678120487474 135.55199678543536 2 8.0860300121485125 133.37899597587329 2 195.16736684760693 127.53417889430911 2 6.2892397254615071 149.7284339829036 2 146.81131418395026 148.02576083401647 2 24.73885835383879 154.10721881286997 2 170.0755504
[...]
<PointData>
<DataArray Name="Points" NumberOfComponents="3" format="ascii" type="Float32">86.801418545242001 9.0077395278248336 3.0 127.88485831811796 9.5703028226215494 3.0 3.6663557578910013 23.954369787793222 3.0 196.49724777622487 38.389657237369789 3.0 149.11818704486987 34.83139527601503 3.0 50.493678297273121 47.62318916044763 3.0 11.591355922920098 44.388945532536852 3.0 155.78261497762995 40.033227710001221 3.0 197.41556755420214 55.17495423060771 3.0 19.43544099574434 51.864832329542701 3.0 79.964470894998186 64.505545068755325 3.0 182.6057973717962 61.232467679931567 3.0 101.09786954092404 73.733288387380327 3.0 171.82911769936641 74.750335310928776 3.0 141.65308846941733 78.765549696808876 3.0 135.70032701197022 80.447383997857244 3.0 71.252821922288163 81.339199069302566 3.0 87.084838586527027 83.640804222132317 3.0 184.5361230436236 85.767315115804237 3.0 7.1828700554739173 98.301642844036323 3.0 179.11659493274635 106.36070656781496 3.0 75.100240968722247 103.08305853177312 3.0 134.92897515746401 98.906738370740854 3.0 162.58773224117638 110.34672731776909 3.0 2.5844324457978454 113.1154238748969 3.0 185.02349046260099 114.03836714940456 3.0 141.47312606773875 115.05233554826449 3.0 68.055233406482955 124.31210924003598 3.0 24.364784195462622 124.11689294711559 3.0 197.41556755420214 136.24319291252741 3.0 10.274495926699547 148.87842300674305 3.0 18.588655911878323 158.70838917600506 3.0 166.81547182228454 149.5424980781014 3.0 32.048484152768644 155.76416693815793 3.0 161.04411897063102 161.48849279183909 3.0 146.02475061685351 164.26470528038644 3.0 165.66251777395988 166.16697703370929 3.0 96.53052924935659 167.54108452999074 3.0 101.78553038965005 170.11552689364567 3.0 146.50033306079257 179.5393202262934 3.0 184.74704746680607 183.50027745153685 3.0 193.76795052440258 194.1095835870608 3.0 91.942150874682824 197.41556755420214 3.0 15.741895043923289 197.61556755420216 3.0 188.35803401786686 194.6969723063373 3.0 118.17743910763903 13.101509543502019 2 75.141654150745026 7.7922901027487272 2 13.136081505215843 26.47683503712744 2 135.07155076379559 39.261842687742586 2 24.241292747005364 27.963036085226413 2 181.06348338494857 34.349924760375686 2 193.65024056483171 31.198499172499677 2 119.33168913974721 42.220782219760295 2 73.66746286126903 40.913623594977118 2 139.53235672502225 39.352487151195035 2 30.424889394960335 34.340745132003278 2 163.71066586763277 54.559492786572669 2 186.85186245305516 54.779398316514445 2 80.925399802188011 54.348386143750012 2 197.41556755420214 67.322422115110854 2 78.135125026649447 71.295403796743074 2 105.44108993906052 75.259603407659583 2 173.28589929659717 61.308974217459834 2 151.40323887743591 68.898291692054215 2 139.4849906788518 87.837578104672261 2 75.828209118847752 90.851894924822233 2 96.015158850449325 80.677053638502301 2 171.84645682490464 96.542465836467514 2 68.154073584502925 87.872708094338364 2 190.16756838918189 91.208674063095359 2 2.5844324457978454 92.040719280744653 2 195.7646231490958 106.67361344242416 2 75.712280273079386 111.38993888424018 2 152.35589770058553 106.57623899604016 2 9.9593875979045752 108.04922457358903 2 192.58073842470981 120.13893616312207 2 151.5364383195255 124.2959056274814 2 175.14478084123584 115.85079362440271 2 71.934908503778232 116.68688046271424 2 27.642908295819062 130.95564605602505 2 22.354282666679378 137.86643865661694 2 2.5844324457978454 145.60437320321424 2 15.980603272376888 135.20225527304416 2 141.79922508047926 138.59080061108421 2 156.59562244428037 147.08111819972919 2 9.1941664009540727 152.04175433213734 2 151.7497265688568 154.85726558342998 2 156.80296864504055 171.35141932698122 2 92.282988384403922 176.97013379428216 2 174.9100651259084 179.91355352160701 2 105.14672353365006 176.12556731716452 2 151.09634030201246 187.00567530480581 2 191.17476416738606 180.83988470939644 2 197.41556755420214 188.43162856749518 2 87.941719840008815 189.03506629888662 2 10.135078736354485 189.63002887569007 2 171.49444723840278 197.41556755420214 2 30.005681710913912 2.6290979429048793 2 123.02843956725549 2.5844324457978454 2 77.836951817315196 12.012363928572983 2 3.0041966305285395 19.344699587490819 2 27.950843768808369 22.760107765580219 2 55.860692520596196 16.544944375996039 2 125.08506461186684 29.79228487726585 2 20.186673505052742 30.257359241680692 2 171.10281155442155 37.022979907355548 2 186.36711891393836 32.075309019004983 2 70.202825454981053 36.635420421057418 2 146.04927003814311 43.11534938788833 2 31.837297862970981 39.921963752021838 2 154.60614617484094 51.503114777120203 2 193.17371396854443 47.15433986980473 2 106.81366783201123 57.93387962603213 2 89.451356876655524 56.344403728972964 2 193.23845719017169 67.447456777693873 2 92.31817743032866 71.923517013728471 2 75.364438107199746 82.359198260907689 2 80.177145724622335 91.643126963352742 2 59.282580459850259 84.269921304522995 2 180.56576398851811 93.722994583019741 2 14.318967323727763 92.72858736683817 2 174.83768692458253 100.50547709072195 2 138.13320060965137 102.25489770944658 2 168.48322933900442 108.3841418297233 2 7.3016616932133083 116.12095908910115 2 193.22904403894196 112.21817395826477 2 145.35840090873938 112.14466931347863 2 192.03334623734565 126.4096173314048 2 25.880949146262758 120.05651109628403 2 81.512755973844861 129.57725296961453 2 32.750463752255243 126.63293109259396 2 151.2804395694113 137.67659779375884 2 24.400366808860067 134.60990216630481 2 29.499269342484787 146.66974039285395 2 196.71895308162226 139.36343489660172 2 43.533031581760035 135.04469104674686 2 11.634613379119441 145.03081971608799 2 197.41556755420214 147.47575919674682 2 25.118802708054183 150.2602775689648 2 26.11354365205236 158.09246610462435 2 169.26654398484354 159.31222442989372 2 2.5844324457978454 161.77689059671982 2 121.70355290341938 158.03383530797635 2 45.447210913951452 156.17754445329169 2 50.868251984068081 165.79608263636021 2 92.481853691729086 164.94379470633839 2 161.90256566114761 165.26552073519562 2 152.35716210136314 178.81698308431314 2 29.792984290734918 181.06227526817781 2 175.72643653657667 186.27680244130028 2 190.79993995878593 192.88252811952623 2 85.717794100393135 192.82886303816932 2 8.2659016593405212 193.75976630284026 2 177.34978715139709 192.73192561238341 2 114.81234888928026 16.362169705270684 2 67.269760226679438 11.319710457431915 2 12.748756920017236 22.112831337172157 2 62.365865877894798 29.237821573490834 2 115.91491689934281 21.200435544016088 2 136.8877149126854 30.143380655874569 2 39.297279351776467 24.065385550522375 2 178.12637101052542 37.919488881045829 2 120.24230105856202 31.038772742668723 2 35.311885708833174 35.281150534543414 2 159.84787782578505 42.671419462587245 2 185.06339943782987 46.682434609459335 2 25.148810019903809 63.439768782254731 2 96.819492443360105 52.561182334081408 2 86.809788288277161 67.734514763208921 2 195.4876268213232 58.780826973916056 2 89.826584710655112 75.319354333725514 2 131.83838255403069 82.513064501678258 2 81.473924407774589 101.55138845054918 2 89.736342688770648 95.732231366274689 2 188.8755096639519 99.354831362175673 2 197.41556755420214 96.251045836529343 2 70.858290058612297 112.38285687969675 2 160.62898062171118 103.6696721223645 2 5.7728562910033947 107.16361230035906 2 187.79761533030165 118.45313613212271 2 173.92760175236648 123.61370234489654 2 56.731011170338078 128.04915903394541 2 34.062009391182293 138.28638679815745 2 146.243805617471 128.9094211398091 2 18.947865213795438 144.99253339840661 2 3.3673501151250091 135.29027515201511 2 37.660951289116888 136.19454298438436 2 13.473868857771567 140.11641391030375 2 173.23280629862361 147.68755835768189 2 16.865570079720026 151.998358294159 2 163.1102626954499 150.15782705335064 2 36.111629996677202 158.76358690464244 2 2.5844324457978454 156.6801073431881 2 125.72832743499545 159.48526859242523 2 42.71602162490673 159.98390259053753 2 44.975003868758712 151.65777999120286 2 142.92681616093509 156.31945781774243 2 163.84461410171676 176.62227395176603 2 95.835518402011786 184.04261274847318 2 172.79392186375617 174.77048731228788 2 106.10719157763998 185.15966360612714 2 160.80870638486684 180.35578253380473 2 197.41556755420214 184.73776824181977 2 79.005169790207574 187.57801410100632 2 18.876966237679973 181.54758542031385 2 175.50891892884795 197.41556755420214 2 39.212757274458056 2.604196630528539 2 79.985820273894603 7.2993562670614169 2 131.48125351404431 5.1298279607420305 2 9.1467565575573904 27.324801971923709 2 18.986008128704597 15.9523506801522 2 129.58297079341108 28.48281153183737 2 191.59581070228271 38.966125480897929 2 114.25090008537848 35.069474378509305 2 64.279178794060272 34.678971495462065 2 16.484748829729753 44.581953903066072 2 151.06896951589684 48.062907749858191 2 197.41556755420214 47.912309376318703 2 21.400381057663882 57.097923271016903 2 82.542205085596279 72.184780045542453 2 176.61901814881963 70.785321081377148 2 147.19915595233959 76.694614931019487 2 130.59672126751008 77.74384909231749 2 75.54295433739783 77.839196530220164 2 82.733262546612281 85.900369538299344 2 192.24310447763125 87.341999804362558 2 15.378392053210312 101.38174721599486 2 187.2315954772877 103.29109155453679 2 72.34630546516405 99.557216468426503 2 129.73393557116091 101.83211904754401 2 157.93570912496855 111.10688960255635 2 181.56618265677153 110.40425356505155 2 142.17739650214338 109.78531153132164 2 184.0901631767137 125.06495263991086 2 29.6046379426895 116.56890774889344 2 67.138782885171707 128.24633778870862 2 71.989618482593443 128.78360172130115 2 145.8678120487474 135.55199678543536 2 8.0860300121485125 133.37899597587329 2 195.16736684760693 127.53417889430911 2 6.2892397254615071 149.7284339829036 2 146.81131418395026 148.02576083401647 2 24.73885835383879 154.10721881286997 2 170.07555048390432 154.87239187190551 2 154.71989431656084 158.05976402384908 2 148.22659309453613 168.35032534920839 2 88.937054135797865 153.99726356700575 2 169.90653235152334 167.37428553259323 2 92.848408242348512 169.39121691957203 2 97.362351958071287 171.47116007212549 2 146.28765452592336 184.39581689706691 2 181.98827959005055 181.3459827561866 2 197.41556755420214 197.41556755420214 2 95.458554934838716 192.74894423692785 2 190.9566714062442 197.41556755420214 2 89.58270143718326 2.384432445797845 2 127.10804203206231 14.37244371618219 2 75.876479338633231 2.9463432232369842 2 16.318599145973721 19.831948278497457 2 111.67696098436775 26.349431088490135 2 130.63865830189124 39.552803730039791 2 32.158710613465068 29.497117526263605 2 187.29186893870147 38.109111009887748 2 197.61556755420216 25.826127412125341 2 122.69120374557816 39.474154091539326 2 78.714654189360502 43.542417619321164 2 142.00727517368867 35.398492890724853 2 159.79023473799623 51.444964530963361 2 182.06076384189379 53.178895470484413 2 24.970318643723111 52.315019383780097 2 85.98274921437897 52.231933391793163 2 196.44206463089031 63.173755886342704 2 74.326641818244539 69.286302307104478 2 107.47413540223693 70.955583374311274 2 171.1505282794044 65.975181135599357 2 155.55145503614969 75.986561737030542 2 131.23611966601368 88.214613545990417 2 72.571580796143877 94.739315481409335 2 90.478942948656069 86.602055932414828 2 197.41556755420214 89.944961881531782 2 2.637218452308157 99.969770745382561 2 192.14906575664094 108.28250738990567 2 134.90577353420665 109.10301206323658 2 153.28955624788892 112.00639976103679 2 12.668032038676527 104.9716406375222 2 197.41556755420214 114.9052352363354 2 146.99119972146639 124.12750486342755 2 178.7294232546524 124.84354405598648 2 60.091436176108303 125.97017917086373 2 72.766931653631104 124.36105033844908 2 32.380994079708081 134.71561464863839 2 19.893508361017947 135.3191647710195 2 6.5340617367121681 137.26936760929101 2 193.40887727736489 132.24760586878077 2 138.04947540229838 136.16043726891425 2 11.720697254084879 161.30652335650649 2 35.752292249291415 162.7797448428698 2 160.13542202624453 154.70358382258357 2 7.8271984152611154 158.99919868039268 2 150.9101717635223 159.38480090284392 2 159.59185459026662 175.2566614887786 2 100.96084023896519 178.35772083594796 2 171.09255581976961 179.06967264359571 2 101.01729849454983 182.69055514827926 2 159.42375033247251 185.56050806738094 2 187.77845528681553 186.56797628112207 2 194.3148456917344 186.79539175478868 2 90.708329562826819 184.06464173480975 2 18.459850010440412 185.93725371019036 2 168.81390424482314 191.50681910444902 2 119.28279753623575 8.4375272461971882 2 72.104567022791088 12.229447105769783 2 51.047147479693479 22.953805645386129 2 126.40956372490245 24.834256656437962 2 20.510639597124598 25.748387489191423 2 175.0963231283323 34.145333070293646 2 193.54611987582177 35.408580422666851 2 105.05978742539415 31.005015176297022 2 66.250033374303882 39.688488690910923 2 149.98674030794419 39.212366206342551 2 154.54028954124868 57.417076436517483 2 197.41556755420214 41.461829570378782 2 81.155670859376727 59.807488914700677 2 65.051277486525876 74.699237732184187 2 79.172634348595992 79.277252320542146 2 84.994466782437101 94.108592364718618 2 194.39992846502864 83.028188160502651 2 63.166254583169234 81.905827206014578 2 185.61077963132837 91.994074320442337 2 10.71987679996063 90.341599110880495 2 173.06414842741444 104.52650806895306 2 70.513302951262872 107.52809788194854 2 133.66723225823694 104.64448993477528 2 162.99281976377117 116.04225482159183 2 13.310907757286699 113.6523128982296 2 189.75253453393043 115.1722508484164 2 148.81376252023813 120.05542342963088 2 185.3409303163788 130.79824053912918 2 38.050039468547233 120.64856669070429 2 77.040401298895034 126.51721038192836 2 34.010071098225133 122.85697771331071 2 150.14908597083397 142.44667826030894 2 22.983856667942092 127.16954773204641 2 26.797214253826301 143.23991353087993 2 197.41556755420214 143.22945914990621 2 15.812534362872983 147.54617747898405 2 142.41968650337381 147.47996331611665 2 197.61556755420216 155.03894015853683 2 28.552271537612967 151.04911227511127 2 169.25137261162632 163.48082078493499 2 45.823541670429528 164.12398088870881 2 47.304327082709321 168.7433461024242 2 95.876011328445756 161.3013781498789 2 157.51357834939716 163.95016828008715 2 84.538560944519105 175.54744799068385 2 149.79385663907689 175.08424661719064 2 168.86045663340536 186.81625599356343 2 185.22889002970385 192.86388680603528 2 78.813645962280688 196.07617209869278 2 3.7136093415716149 192.80963366347589 2 181.70713677343153 185.86188983912379 2 120.23320918507956 19.991823085568871 2 12.579643281924037 17.2200825026971 2 56.805617636288694 30.331770302440415 2 108.27165289542739 22.923121570251276 2 141.23841064365763 30.56817853941504 2 183.32190319632187 42.000798487341825 2 192.67242943625223 26.451261502026359 2 115.49306233320856 30.109495357436803 2 36.53384758252863 31.17883686356652 2 166.98731622001759 48.743133326480212 2 191.04647084238414 50.693262834138586 2 97.302008193388104 48.444689356295633 2 187.17190873739136 61.430470886287083 2 85.536742487672967 75.205498963080785 2 175.9394475152383 65.467878162017001 2 146.962705328846 71.382340501618586 2 77.188796965768404 94.85249858829566 2 86.576437900189418 87.938931348615071 2 181.32401648317736 98.079005693314272 2 13.147295194499439 86.509785020858089 2 192.01907667841897 103.24007765301248 2 62.093806156706201 115.39074752402098 2 130.9164076595676 111.43114660343812 2 161.04524447051992 99.02122296728237 2 6.7499265785827829 102.836676069528 2 182.98355341745074 117.76535180500535 2 175.73037107620866 128.06693444980067 2 37.639984373625509 125.22130367483874 2 29.751750145914976 141.74956898432384 2 16.532882408195256 142.32175828967863 2 2.5844324457978454 142.20632297495709 2 35.408587731399592 132.70465892675423 2 8.5043746034994125 145.37950883998224 2 168.92333100943196 145.09015673405176 2 197.19580336947146 159.69236097134709 2 13.090616860288362 153.18755238100965 2 164.88647420690171 153.7347823104663 2 32.084491902675886 159.43369423040858 2 152.68258586817851 145.52580780014185 2 2.5844324457978454 152.566808358305 2 41.585671567396069 153.65078744571574 2 147.55436005096615 155.79208210398403 2 161.77979419109744 169.75503228288801 2 95.542641253356763 187.99036839304409 2 197.61556755420216 173.72510176088545 2 176.25063068757873 171.18941694517889 2 102.0547732665912 186.98624583957829 2 164.15970517473821 184.96335093567285 2 197.41556755420214 180.25959602223341 2 81.703438074362936 183.64734367726305 2 181.73426664898284 197.41556755420214 2 98.52760065003234 68.983841728282854 2 32.483594334314397 149.66742932822316 2 40.939731517931811 138.15498249226758 2 11.930709436698864 133.39459903582647 2 88.283307876655257 60.189601163456715 2 93.641610571642531 76.676481132825572 2 94.272901174475919 65.930999089465885 2 111.24405544562433 60.945751896484815 2 26.61513997932828 37.687708217208908 2 47.250464809117325 137.29928744473568 2 42.511801663264038 147.9195710793779 2 82.930844465720739 3.6766014561038656 2 123.90638465784001 6.9843918346071261 2 6.5570621740142165 20.176401245570133 2 197.41556755420214 34.360422142221971 2 145.70997891031109 32.502404222155626 2 155.04502361995557 44.551001912161297 2 194.16379042713999 54.331894760047774 2 83.768501631688295 64.796762006652727 2 184.90069655146903 65.371112568200502 2 143.00197092725031 74.452646882847617 2 137.58628796399671 76.556190044975708 2 66.933768449865568 78.920315970312956 2 88.122270305100486 79.529800862657964 2 180.85975172704107 85.627605827000039 2 8.4470145431593586 94.486799249181757 2 179.38283650096264 101.89304888853584 2 75.50467898368224 106.93575966924959 2 130.52438284647931 96.876798575295908 2 164.62660859963981 105.83679914158742 2 2.5844324457978454 109.4361623657035 2 188.35344436162535 111.13988717995352 2 144.09396326882103 118.55009701107144 2 37.429217230246962 116.41506280914034 2 63.63038066538013 120.93191784144983 2 28.68073613771347 124.20425007805702 2 197.41556755420214 132.98523306209077 2 13.324182266899347 149.41624658215773 2 22.121738967861795 157.72750358889797 2 170.30125738821829 150.71906041316214 2 162.13896696891013 157.73013013782048 2 142.76799700910729 161.22354818267823 2 166.91788521357924 170.33555783494734 2 99.415851413669245 165.07704206583941 2 105.76469701909556 169.28575464915338 2 144.95564845913233 174.99507658175318 2 188.0489333224335 183.04635957213802 2 197.41556755420214 191.53345727719014 2 96.372173395856109 197.41556755420214 2 14.317397002808796 193.36964204951241 2 187.38857319977672 197.41556755420214 2 122.99489940760006 11.542017187810167 2 70.290108098702532 7.3670278969727017 2 15.970801755684112 29.328254660230925 2 132.64422655587802 35.276513020749626 2 26.530146181050519 31.743928070679267 2 183.12655224490027 30.565168393052883 2 197.41556755420214 29.943994177917169 2 115.88704783794664 39.461789069992619 2 158.96939028163837 56.060284272427488 2 190.90715544847728 54.743247723979252 2 84.935036425283045 56.829278645381059 2 196.89886767035074 71.988383301189714 2 79.779835340930887 75.3339481775282 2 106.72209490741903 79.77660443678333 2 168.25112329685882 61.752853286891302 2 151.16019526623927 73.90887818083651 2 139.93499538970102 82.960213442612115 2 71.912221325574308 90.04335299208887 2 94.183152179516014 84.846679079420284 2 168.62959039696179 100.2637269343381 2 71.101013989986498 85.06480821173119 2 189.2979655818458 95.105808034879786 2 2.384432445797845 88.052448672467449 2 197.41556755420214 103.29517746970731 2 154.15485743768502 101.89168135746354 2 7.5127877847842646 111.67390539781888 2 196.15400251766249 123.50982328265555 2 154.87540523220693 120.81658653474511 2 177.4241987838588 120.02342027569647 2 69.90396958621352 120.70532836309093 2 23.856511271133854 130.83502790259391 2 21.4875848168296 142.57691873910406 2 2.5844324457978454 149.16131625745368 2 141.63660110903822 142.75794460157445 2 153.78560841064609 150.54359210927953 2 9.3812299618780965