<?xml version="1.0" ?>
<VTKFile byte_order="LittleEndian" type="UnstructuredGrid" version="0.1">
<UnstructuredGrid>
<Piece NumberOfCells="0" NumberOfPoints="112">
<Points>
<DataArray NumberOfComponents="3" format="ascii" type="Float32">0 0 0 34.097541245996347 4.1246996267657039 2.5 74.905514905439219 17.180878320537097 3.0 23.579146990760556 17.811285045373232 3.0 62.332028245336367 18.553673557487578 2.5 100.76483691744865 21.079543798932882 3.0 138.33404026296 25.579935850467752 2.5 22.248962127855997 34.635083936032174 2.5 181.68368555393624 27.164246128270669 2.5 110.84945834025753 39.542907134454815 2.5 69.293381019438129 31.163546476589765 2.5 27.084891182275165 42.893711523833638 2.5 101.98744414368689 51.896337352115971 3.0 92.537706844909309 60.305221508423784 2.5 71.414049203967309 66.267787543685245 2.5 181.23349648570039 81.07725828496433 3.0 59.896313334344775 90.452374687905262 2.5 76.587807810743712 131.94353961016054 2.5 149.87292934837447 132.26500211652225 2.5 15.751742827749208 131.61364464934272 2.5 3.909131788349177 128.77177008710515 2.5 33.064758798153356 144.17762488597469 3.0 44.05434671101186 142.27503516717175 2.5 140.04814820678581 151.75277515642051 2.5 176.06929113958532 144.26592397506928 2.5 190.40517221105321 144.78140388904208 2.5 8.3779077631066681 163.13995289470128 2.5 117.48591196204563 155.89565611468893 2.5 42.169902645569053 168.1466697284088 2.5 51.778801542403272 158.15734041324907 2.5 91.874736788766469 158.97345001135005 2.5 192.31659340965118 177.6107885225575 2.5 181.42933849867262 171.34461283930997 2.5 24.782218683079257 181.7698641402535 2.5 24.721007341878408 7.4179877185759544 2 14.566570200022245 12.440347434218378 2 63.639443257121414 23.66191055315975 2 60.544401071445762 40.586125102233979 2 22.008093487560455 45.65050567594897 2 101.24501030427834 58.166248718701453 2 91.99341125472921 47.760463861247459 2 134.88314326146232 114.85817429844553 2 42.049309841526529 129.74593230756955 2.5 63.556848447112252 132.41760558376049 2 141.27936922261995 132.50976814884922 2 38.728295335595519 144.79765232522706 2 188.26953137756712 134.86173173595208 2.5 47.705544687192635 146.95289895361933 2 171.64276618497411 140.60232135674354 2 191.71625973455016 150.52059275496575 2 18.891016325000887 162.74033853133645 2 163.28789580378466 145.10980654330811 2 27.635571946130135 164.35255316612981 2.5 126.05968954380585 154.26540944897928 2 37.509441526321055 150.37258274651523 2 49.658059427938952 152.54837970451894 2 100.96048965281092 161.0841039950821 2 197.05 164.864429410491 2 23.912092515042325 188.63211249773494 2 101.91902778927121 16.490998849575817 2 110.41776684393646 31.92294209183434 2 15.851124477879589 59.757666462203119 2 176.84797056845582 77.230285139828155 2 138.01200629790665 71.611254266553146 2.5 133.56377662229443 73.121453448741448 2 67.28753626705074 103.23488528968629 2 71.515884505596759 134.56932480269384 2 11.276227164809765 129.42267339596793 2 137.98872258547112 146.1489954723925 2 176.33529788049398 152.62571561584335 2 174.63621006358002 158.22707692208456 2 138.98128714111235 159.06932141429812 2 88.478705141091666 171.20556991305727 2 181.5510051364725 176.52745904182819 2.5 92.764596597965749 12.579275254075201 2 20.022234350287398 10.798669700732244 2.5 187.09270901889496 26.052615453612844 2 65.767479655468819 44.833667764552985 2 13.581159809879958 52.142901270217472 2 98.110999390161126 63.430301281477682 2.5 102.95164544429993 67.378209417981282 2 181.75450134236596 69.487816818176398 2 177.252525998729 85.574319363007447 2 67.634659650760469 97.630107960456016 2 7.6128385577848974 85.870418491289399 2.5 138.86875734626895 121.04434615790663 2.5 41.728835080227562 123.9042146917338 2 80.164688886458492 122.33360213908549 2 189.20270675899926 140.08228355027984 2 135.34676984192458 140.98071473338109 2 194.20973070679949 156.90635062686616 2 156.40222855984535 142.97217813467063 2 98.273185070600164 155.72423278255553 2 197.05 169.88482929248997 2 186.31903047446818 178.77916089610147 2 145.29132503076576 27.938123149056523 2 187.51416140503608 69.025702544610539 2 13.250481890023265 165.12791809919929 2 36.847011089552815 167.42528323601229 2.5 18.73327824177402 191.02047724331038 2 80.357613905196956 106.44280914551858 2 165.92552779185039 139.80768810322712 2 87.431520361790533 13.814884877995379 2 8.1077692840697182 15.777167414055349 2 29.327338271458324 18.572705232294215 2 37.83192726631183 39.366252432791534 2 174.75498182195048 164.91639429121182 2.5 23.521849336693094 161.83175176555699 2 67.969912594866685 16.888245981054546 2 52.134324354301626 128.20162010051902 2 76.629637597498075 116.18306091596226 2 141.11514883858683 126.85329843930177 2 </DataArray>
</Points>
<Cells>
<DataArray Name="connectivity" format="ascii" type="Int32">0</DataArray>
<DataArray Name="offsets" format="ascii" type="Int32">0</DataArray>
<DataArray Name="types" format="ascii" type="UInt8">1</DataArray>
</Cells>
<PointData>
<DataArray Name="Points" NumberOfComponents="3" format="ascii" type="Float32">0 0 0 34.097541245996347 4.1246996267657039 2.5 74.905514905439219 17.180878320537097 3.0 23.579146990760556 17.811285045373232 3.0 62.332028245336367 18.553673557487578 2.5 100.76483691744865 21.079543798932882 3.0 138.33404026296 25.579935850467752 2.5 22.248962127855997 34.635083936032174 2.5 181.68368555393624 27.164246128270669 2.5 110.84945834025753 39.542907134454815 2.5 69.293381019438129 31.163546476589765 2.5 27.084891182275165 42.893711523833638 2.5 101.98744414368689 51.896337352115971 3.0 92.537706844909309 60.305221508423784 2.5 71.414049203967309 66.267787543685245 2.5 181.23349648570039 81.07725828496433 3.0 59.896313334344775 90.452374687905262 2.5 76.587807810743712 131.94353961016054 2.5 149.87292934837447 132.26500211652225 2.5 15.751742827749208 131.61364464934272 2.5 3.909131788349177 128.77177008710515 2.5 33.064758798153356 144.17762488597469 3.0 44.05434671101186 142.27503516717175 2.5 140.04814820678581 151.75277515642051 2.5 176.06929113958532 144.26592397506928 2.5 190.40517221105321 144.78140388904208 2.5 8.3779077631066681 163.13995289470128 2.5 117.48591196204563 155.89565611468893 2.5 42.169902645569053 168.1466697284088 2.5 51.778801542403272 158.15734041324907 2.5 91.874736788766469 158.97345001135005 2.5 192.31659340965118 177.6107885225575 2.5 181.42933849867262 171.34461283930997 2.5 24.782218683079257 181.7698641402535 2.5 24.721007341878408 7.4179877185759544 2 14.566570200022245 12.440347434218378 2 63.639443257121414 23.66191055315975 2 60.544401071445762 40.586125102233979 2 22.008093487560455 45.65050567594897 2 101.24501030427834 58.166248718701453 2 91.99341125472921 47.760463861247459 2 134.88314326146232 114.85817429844553 2 42.049309841526529 129.74593230756955 2.5 63.556848447112252 132.41760558376049 2 141.27936922261995 132.50976814884922 2 38.728295335595519 144.79765232522706 2 188.26953137756712 134.86173173595208 2.5 47.705544687192635 146.95289895361933 2 171.64276618497411 140.60232135674354 2 191.71625973455016 150.52059275496575 2 18.891016325000887 162.74033853133645 2 163.28789580378466 145.10980654330811 2 27.635571946130135 164.35255316612981 2.5 126.05968954380585 154.26540944897928 2 37.509441526321055 150.37258274651523 2 49.658059427938952 152.54837970451894 2 100.96048965281092 161.0841039950821 2 197.05 164.864429410491 2 23.912092515042325 188.63211249773494 2 101.91902778927121 16.490998849575817 2 110.41776684393646 31.92294209183434 2 15.851124477879589 59.757666462203119 2 176.84797056845582 77.230285139828155 2 138.01200629790665 71.611254266553146 2.5 133.56377662229443 73.121453448741448 2 67.28753626705074 103.23488528968629 2 71.515884505596759 134.56932480269384 2 11.276227164809765 129.42267339596793 2 137.98872258547112 146.1489954723925 2 176.33529788049398 152.62571561584335 2 174.63621006358002 158.22707692208456 2 138.98128714111235 159.06932141429812 2 88.478705141091666 171.20556991305727 2 181.5510051364725 176.52745904182819 2.5 92.764596597965749 12.579275254075201 2 20.022234350287398 10.798669700732244 2.5 187.09270901889496 26.052615453612844 2 65.767479655468819 44.833667764552985 2 13.581159809879958 52.142901270217472 2 98.110999390161126 63.430301281477682 2.5 102.95164544429993 67.378209417981282 2 181.75450134236596 69.487816818176398 2 177.252525998729 85.574319363007447 2 67.634659650760469 97.630107960456016 2 7.6128385577848974 85.870418491289399 2.5 138.86875734626895 121.04434615790663 2.5 41.728835080227562 123.9042146917338 2 80.164688886458492 122.33360213908549 2 189.20270675899926 140.08228355027984 2 135.34676984192458 140.98071473338109 2 194.20973070679949 156.90635062686616 2 156.40222855984535 142.97217813467063 2 98.273185070600164 155.72423278255553 2 197.05 169.88482929248997 2 186.31903047446818 178.77916089610147 2 145.29132503076576 27.938123149056523 2 187.51416140503608 69.025702544610539 2 13.250481890023265 165.12791809919929 2 36.847011089552815 167.42528323601229 2.5 18.73327824177402 191.02047724331038 2 80.357613905196956 106.44280914551858 2 165.92552779185039 139.80768810322712 2 87.431520361790533 13.814884877995379 2 8.1077692840697182 15.777167414055349 2 29.327338271458324 18.572705232294215 2 37.83192726631183 39.366252432791534 2 174.75498182195048 164.91639429121182 2.5 23.521849336693094 161.83175176555699 2 67.969912594866685 16.888245981054546 2 52.134324354301626 128.20162010051902 2 76.629637597498075 116.18306091596226 2 141.11514883858683 126.85329843930177 2 </DataArray>
<DataArray Name="forces" NumberOfComponents="3" format="ascii" type="Float32">0 0 0 0.32047042019256861 0.1339419198939853 0.0 -0.43588106920318853 -0.26409650115719163 0.0 0.31127224413746657 0.19784005568084362 0.0 -0.14827083693846579 -0.1336211407760787 0.0 -0.039325645466693704 -0.36237434601711471 0.0 0.39628344098634616 0.044565692127581047 0.0 0.002440046060657064 0.071519089270205755 0.0 0.2144096738654323 -0.13834607868677606 0.0 -0.035890196830210996 0.49693250265359773 0.0 0.13152585120606652 0.14259748462303246 0.0 0.035848657849716525 0.22063891965719704 0.0 -0.07608017799920988 0.016044713344613045 0.0 0.30374070419948884 0.14682330655436859 0.0 0.2327772719174391 -0.033725060460710943 0.0 -0.039051045207490573 -0.15154009724848638 0.0 0.13950307348540547 0.25426488255414781 0.0 0.087339435515203845 -0.020037841440353588 0.0 0.037055883013832586 0.039433290967878593 0.0 -0.034850385002051065 -0.077076199499379744 0.0 -0.27104265078976902 -0.6610038339275599 0.0 0.351966503436141 0.13032861377060201 0.0 0.10679726787338067 0.39171506073572432 0.0 -0.40777067817044677 0.19862129262275366 0.0 0.063578570165035375 -0.29840920925566938 0.0 -0.47631941153558166 0.099824361385910221 0.0 -0.27221209252950729 0.5183211893167825 0.0 0.23838318146023119 -0.31896820163012757 0.0 0.20805213960857408 -0.014928967922535841 0.0 -0.30182159597710789 -0.34221166832815519 0.0 -0.0048149933543413237 -0.62997869241474891 0.0 0.28633142455925409 0.052002929714856948 0.0 -0.043801894388286133 -0.057982041431964837 0.0 -0.2288371792817544 0.32031833430673795 0.0 0.22681820895001836 0.16472651731218502 0.0 0.42927767016950308 0.18922210316815713 0.0 -0.21200062635500194 0.031465176998384636 0.0 0.073397374043820934 -0.12765519666424824 0.0 0.010833392017348953 0.18190209962648937 0.0 -0.11764978518613387 -0.3132137994454342 0.0 -0.1499271632407041 0.80179867800743376 0.0 0.016282438843192804 -0.17311426068035124 0.0 0.74935393883343426 -0.18434845051335552 0.0 -0.1587964545704329 -0.45645420166723344 0.0 0.21663519649319729 0.033438008569639799 0.0 0.11448278427377179 -0.0095135325681431349 0.0 0.34849492080658123 -0.012724948215126597 0.0 0.25424553437483022 0.26199388952834191 0.0 -0.2879155056279567 -0.20298483441478438 0.0 0.2730440384987215 -0.068329444954577934 0.0 0.3330049008167198 0.19710237019842469 0.0 -0.19725233975270315 -0.2050165658467378 0.0 -0.033338975793522407 0.23367632658390347 0.0 -0.099404226980714661 0.15917556616935202 0.0 0.1913480119535923 0.057884834388108874 0.0 -0.09176637834069723 0.74156847732006737 0.0 -0.10746659990602225 -0.58586018523105932 0.0 1.0907987391679548 0.066176593880599044 0.0 0.090840322306814159 0.051442087299504058 0.0 -0.087303142741116418 -0.1533410860752232 0.0 0.065481108532446319 -0.28084869689846237 0.0 -0.12862803179240778 0.14559564715376605 0.0 -0.26440678854626082 -0.04662677395872028 0.0 0.10845997735343949 0.30505094123994525 0.0 -0.08100999601238934 0.034936325569291105 0.0 0.57440439452864789 -0.0152398626929399 0.0 0.3880365735342397 -0.12081112810890338 0.0 -0.064742273861360555 -0.39396210479755223 0.0 -0.17411293809947351 0.14359088186001581 0.0 -0.34427897830236587 0.017558762331703726 0.0 0.090875403324701565 -0.0084822073874135651 0.0 -0.1716017385540724 0.0487293656071041 0.0 -0.2184171619600902 0.37332965215405273 0.0 0.47211316313856999 -0.20722109594371929 0.0 0.12032069341699925 0.061921773131269564 0.0 0.19244917192754338 0.092871384014871827 0.0 0.12933876985440318 0.38923774729446131 0.0 -0.25029545774672696 0.039636847624295125 0.0 0.19304644909146301 0.0080768140323791981 0.0 0.31400614401644467 0.090075286814728234 0.0 0.28875001713884735 0.092865188645795474 0.0 0.26696027251257293 0.0026028817763161516 0.0 0.041703784629948448 0.036690022711446613 0.0 -0.14935392964256844 -0.18904560669351778 0.0 0.15084877665229271 0.15106636934921847 0.0 -0.05931248351925051 -0.4419566660817566 0.0 0.062901038529305953 -0.11128083532936342 0.0 -0.23147303935512614 -0.01925648563939053 0.0 0.55564706315115164 -0.43121686330706588 0.0 0.22809219933256109 0.04662346145519719 0.0 -0.14833792658618189 -0.14956838756742011 0.0 -0.038202164181300124 -0.39505607581868463 0.0 -0.40703678666274506 0.08869143292771034 0.0 2.1584012063363778 -0.056956060805812392 0.0 0.22099549420472958 0.27775397441229199 0.0 0.088296796502543934 -0.044276601666097259 0.0 0.25936537994122266 0.24848053613441456 0.0 0.17663801810019086 0.49149403290285743 0.0 0.35887959883828102 0.053884445832165784 0.0 -0.031235804595930894 -0.34430657466888182 0.0 0.06347827301816239 -0.15852060233355564 0.0 -0.24378902512581863 -0.20329142362282479 0.0 -0.041855643996693136 -0.031507119880037356 0.0 -0.016561037838182302 -0.0035046366466651158 0.0 0.18476869167940835 0.093298332872936318 0.0 -0.23819444328006709 0.45299917544710977 0.0 -0.62387086859984364 0.24122515497213948 0.0 0.26218609972192025 0.076055223278131009 0.0 0.085823096125229217 0.023273711715580819 0.0 0.10737474689156237 0.124640084825409 0.0 0.039471095734737678 -0.074332731184789405 0.0 0.092511543715032896 -0.068103369821616327 0.0 </DataArray>
<DataArray Name="radii" format="ascii" type="Float32">0 2.95 3.0500000000000003 3.0500000000000003 3.0500000000000003 2.95 3.0500000000000003 3.0500000000000003 2.85 2.95 2.95 3.0500000000000003 2.85 3.1500000000000004 3.0500000000000003 3.3500000000000005 3.0500000000000003 2.95 3.0500000000000003 3.1500000000000004 2.75 3.3500000000000005 3.4500000000000006 3.0500000000000003 3.0500000000000003 3.3500000000000005 3.0500000000000003 2.85 2.75 3.1500000000000004 2.95 3.4500000000000006 2.95 3.3500000000000005 3.2500000000000004 3.1500000000000004 3.0500000000000003 3.0500000000000003 3.0500000000000003 3.0500000000000003 2.75 2.95 3.4500000000000006 2.95 3.0500000000000003 2.95 3.0500000000000003 3.4500000000000006 3.0500000000000003 3.3500000000000005 3.0500000000000003 3.0500000000000003 2.95 3.0500000000000003 3.4500000000000006 2.95 2.95 2.95 3.3500000000000005 2.95 3.0500000000000003 3.0500000000000003 3.3500000000000005 2.95 2.95 3.0500000000000003 2.95 3.0500000000000003 3.0500000000000003 3.3500000000000005 3.0500000000000003 2.75 2.95 3.4500000000000006 2.95 2.95 2.85 2.75 2.95 3.4500000000000006 3.0500000000000003 3.0500000000000003 2.85 3.0500000000000003 2.85 3.0500000000000003 2.95 2.95 2.75 3.0500000000000003 2.95 3.0500000000000003 2.95 2.95 3.4500000000000006 2.75 3.0500000000000003 2.95 2.95 2.95 2.95 3.0500000000000003 2.95 2.95 2.95 2.95 2.95 2.95 3.0500000000000003 2.95 2.75 3.0500000000000003 </DataArray>
</PointData>
<CellData/>
</Piece>
</UnstructuredGrid>
</VTKFile>
