<?xml version="1.0" ?>
<VTKFile byte_order="LittleEndian" type="UnstructuredGrid" version="0.1">
<UnstructuredGrid>
<Piece NumberOfCells="0" NumberOfPoints="69">
<Points>
<DataArray NumberOfComponents="3" format="ascii" type="Float32">18.399999999999991 3.1000000000000005 3.0 11.0 3.9684106575496241 3.0 53.0 4.9684106575496223 3.0 101.0 4.9684106575496223 3.0 160.0 4.9684106575496223 3.0 27.0 11.968410657549622 3.0 188.0 11.968410657549622 3.0 170.0 17.968410657549629 3.0 181.0 19.968410657549629 3.0 71.0 20.968410657549629 3.0 95.0 20.968410657549629 3.0 140.0 22.968410657549629 3.0 89.0 30.968410657549629 3.0 98.0 35.968410657549605 3.0 20.905063158174663 37.126638727258502 3.0 49.0 39.968410657549605 3.0 102.0 41.968410657549605 3.0 60.0 47.968410657549605 3.0 9.0 54.968410657549605 3.0 40.0 59.968410657549605 3.0 133.0 61.968410657549605 3.0 67.0 63.968410657549605 3.0 95.09493684182533 65.126638727258538 3.0 137.0 67.968410657549654 3.0 45.158228069708898 68.873473815724324 3.0 39.841771930291102 72.063347499374984 3.0 20.0 74.968410657549654 3.0 184.0 75.968410657549654 3.0 6.0 81.968410657549654 3.0 116.0 81.968410657549654 3.0 175.64263990752806 85.760488980897236 3.0 47.0 91.968410657549654 3.0 62.0 97.968410657549654 3.0 45.0 99.968410657549654 3.0 83.0 114.96841065754965 3.0 106.0 118.96841065754965 3.0 127.0 122.96841065754965 3.0 110.0 123.96841065754965 3.0 137.0 126.96841065754965 3.0 12.0 130.96841065754961 3.0 41.158228069708898 131.06334749937497 3.0 108.0 132.96841065754961 3.0 97.0 134.96841065754961 3.0 159.0 139.96841065754961 3.0 111.0 140.96841065754961 3.0 183.0 140.96841065754961 3.0 79.0 141.96841065754961 3.0 68.0 143.96841065754961 3.0 37.0 148.96841065754961 3.0 52.0 149.96841065754961 3.0 132.0 151.96841065754961 3.0 62.942178836120348 152.95877379690302 3.0 189.0 152.96841065754961 3.0 69.057821163879652 153.97804751819621 3.0 105.0 154.96841065754961 3.0 180.0 159.96841065754961 3.0 82.0 166.96841065754961 3.0 131.0 166.96841065754961 3.0 118.0 167.96841065754961 3.0 21.0 168.96841065754961 3.0 191.0 168.96841065754961 3.0 13.0 173.96841065754961 3.0 35.0 173.96841065754961 3.0 71.0 173.96841065754961 3.0 55.0 176.96841065754961 3.0 187.0 178.96841065754961 3.0 36.0 191.96841065754961 3.0 24.0 193.96841065754961 3.0 131.0 193.96841065754961 3.0 </DataArray>
</Points>
<Cells>
<DataArray Name="connectivity" format="ascii" type="Int32">0</DataArray>
<DataArray Name="offsets" format="ascii" type="Int32">0</DataArray>
<DataArray Name="types" format="ascii" type="UInt8">1</DataArray>
</Cells>
<PointData>
<DataArray Name="Points" NumberOfComponents="3" format="ascii" type="Float32">18.399999999999991 3.1000000000000005 3.0 11.0 3.9684106575496241 3.0 53.0 4.9684106575496223 3.0 101.0 4.9684106575496223 3.0 160.0 4.9684106575496223 3.0 27.0 11.968410657549622 3.0 188.0 11.968410657549622 3.0 170.0 17.968410657549629 3.0 181.0 19.968410657549629 3.0 71.0 20.968410657549629 3.0 95.0 20.968410657549629 3.0 140.0 22.968410657549629 3.0 89.0 30.968410657549629 3.0 98.0 35.968410657549605 3.0 20.905063158174663 37.126638727258502 3.0 49.0 39.968410657549605 3.0 102.0 41.968410657549605 3.0 60.0 47.968410657549605 3.0 9.0 54.968410657549605 3.0 40.0 59.968410657549605 3.0 133.0 61.968410657549605 3.0 67.0 63.968410657549605 3.0 95.09493684182533 65.126638727258538 3.0 137.0 67.968410657549654 3.0 45.158228069708898 68.873473815724324 3.0 39.841771930291102 72.063347499374984 3.0 20.0 74.968410657549654 3.0 184.0 75.968410657549654 3.0 6.0 81.968410657549654 3.0 116.0 81.968410657549654 3.0 175.64263990752806 85.760488980897236 3.0 47.0 91.968410657549654 3.0 62.0 97.968410657549654 3.0 45.0 99.968410657549654 3.0 83.0 114.96841065754965 3.0 106.0 118.96841065754965 3.0 127.0 122.96841065754965 3.0 110.0 123.96841065754965 3.0 137.0 126.96841065754965 3.0 12.0 130.96841065754961 3.0 41.158228069708898 131.06334749937497 3.0 108.0 132.96841065754961 3.0 97.0 134.96841065754961 3.0 159.0 139.96841065754961 3.0 111.0 140.96841065754961 3.0 183.0 140.96841065754961 3.0 79.0 141.96841065754961 3.0 68.0 143.96841065754961 3.0 37.0 148.96841065754961 3.0 52.0 149.96841065754961 3.0 132.0 151.96841065754961 3.0 62.942178836120348 152.95877379690302 3.0 189.0 152.96841065754961 3.0 69.057821163879652 153.97804751819621 3.0 105.0 154.96841065754961 3.0 180.0 159.96841065754961 3.0 82.0 166.96841065754961 3.0 131.0 166.96841065754961 3.0 118.0 167.96841065754961 3.0 21.0 168.96841065754961 3.0 191.0 168.96841065754961 3.0 13.0 173.96841065754961 3.0 35.0 173.96841065754961 3.0 71.0 173.96841065754961 3.0 55.0 176.96841065754961 3.0 187.0 178.96841065754961 3.0 36.0 191.96841065754961 3.0 24.0 193.96841065754961 3.0 131.0 193.96841065754961 3.0 </DataArray>
<DataArray Name="forces" NumberOfComponents="3" format="ascii" type="Float32">0.0 0.0 0.0 0.0 0.0 0.0 0.0 0.0 0.0 0.0 0.0 0.0 0.0 0.0 0.0 0.0 0.0 0.0 0.0 0.0 0.0 0.0 0.0 0.0 0.0 0.0 0.0 0.0 0.0 0.0 0.0 0.0 0.0 0.0 0.0 0.0 0.0 0.0 0.0 0.0 0.0 0.0 0.0 0.0 0.0 0.0 0.0 0.0 0.0 0.0 0.0 0.0 0.0 0.0 0.0 0.0 0.0 0.0 0.0 0.0 0.0 0.0 0.0 0.0 0.0 0.0 0.0 0.0 0.0 0.0 0.0 0.0 0.0 0.0 0.0 0.0 0.0 0.0 0.0 0.0 0.0 0.0 0.0 0.0 0.0 0.0 0.0 0.0 0.0 0.0 -0.048570210481856273 -0.027195766551041545 0.0 0.0 0.0 0.0 0.0 0.0 0.0 0.0 0.0 0.0 0.0 0.0 0.0 0.0 0.0 0.0 0.0 0.0 0.0 0.0 0.0 0.0 0.0 0.0 0.0 0.0 0.0 0.0 0.0 0.0 0.0 0.0 0.0 0.0 0.0 0.0 0.0 0.0 0.0 0.0 0.0 0.0 0.0 0.0 0.0 0.0 0.0 0.0 0.0 0.0 0.0 0.0 0.0 0.0 0.0 0.0 0.0 0.0 0.0 0.0 0.0 0.0 0.0 0.0 0.0 0.0 0.0 0.0 0.0 0.0 0.0 0.0 0.0 0.0 0.0 0.0 0.0 0.0 0.0 0.0 0.0 0.0 0.0 0.0 0.0 0.0 0.0 0.0 0.0 0.0 0.0 0.0 0.0 0.0 0.0 0.0 0.0 0.0 0.0 0.0 0.0 0.0 0.0 0.0 0.0 0.0 0.0 0.0 0.0 0.0 0.0 0.0 0.0 0.0 0.0 </DataArray>
<DataArray Name="radii" format="ascii" type="Float32">3.1000000000000005 3.1000000000000005 3.1000000000000005 3.1000000000000005 3.1000000000000005 3.1000000000000005 3.1000000000000005 3.1000000000000005 3.1000000000000005 3.1000000000000005 3.1000000000000005 3.1000000000000005 3.1000000000000005 3.1000000000000005 3.1000000000000005 3.1000000000000005 3.1000000000000005 3.1000000000000005 3.1000000000000005 3.1000000000000005 3.1000000000000005 3.1000000000000005 3.1000000000000005 3.1000000000000005 3.1000000000000005 3.1000000000000005 3.1000000000000005 3.1000000000000005 3.1000000000000005 3.1000000000000005 3.1000000000000005 3.1000000000000005 3.1000000000000005 3.1000000000000005 3.1000000000000005 3.1000000000000005 3.1000000000000005 3.1000000000000005 3.1000000000000005 3.1000000000000005 3.1000000000000005 3.1000000000000005 3.1000000000000005 3.1000000000000005 3.1000000000000005 3.1000000000000005 3.1000000000000005 3.1000000000000005 3.1000000000000005 3.1000000000000005 3.1000000000000005 3.1000000000000005 3.1000000000000005 3.1000000000000005 3.1000000000000005 3.1000000000000005 3.1000000000000005 3.1000000000000005 3.1000000000000005 3.1000000000000005 3.1000000000000005 3.1000000000000005 3.1000000000000005 3.1000000000000005 3.1000000000000005 3.1000000000000005 3.1000000000000005 3.1000000000000005 3.1000000000000005 </DataArray>
</PointData>
<CellData/>
</Piece>
</UnstructuredGrid>
</VTKFile>
