<?xml version="1.0" ?>
<VTKFile byte_order="LittleEndian" type="UnstructuredGrid" version="0.1">
<UnstructuredGrid>
<Piece NumberOfCells="0" NumberOfPoints="464">
<Points>
<DataArray NumberOfComponents="3" format="ascii" type="Float32">86.391432742524486 6.5929448239522213 3.0 125.71794356099214 9.6381532186992125 3.0 6.0246109345828067 21.906543020631702 3.0 179.82865417586282 30.147251295147957 3.0 197.19580336947146 38.128585025976541 3.0 146.2785706695721 35.732555438138135 3.0 50.278960667931621 48.710081605014693 3.0 11.166927504676883 45.45694601093259 3.0 154.68461681078779 41.925204690690101 3.0 195.78227433959279 54.389565095418 3.0 19.279014030107454 52.782747653382039 3.0 104.24056887891332 54.414648394486527 3.0 82.124078281389671 65.750343062334792 3.0 183.94965205690775 64.377067855081037 3.0 99.874213670981078 74.764607401164383 3.0 173.27249220868089 74.120955137081467 3.0 141.76300631628101 77.736575527177237 3.0 136.73419029151373 79.724699294782525 3.0 70.783388193972613 81.986312774345436 3.0 86.017962987239571 83.371392523506557 3.0 183.76928738676691 87.588922717262506 3.0 8.1847212302458843 98.12529665372989 3.0 181.04783854324853 104.96544129520629 3.0 74.792477335296795 104.23496607975044 3.0 134.01948530259619 99.237105376879839 3.0 162.18431244887805 109.47523329207192 3.0 2.8041966305285393 111.93175593567921 3.0 186.55232890278484 113.62710869582278 3.0 141.72583243359665 116.32551796420653 3.0 181.82324275996677 129.72635031110715 3.0 36.352641662334747 116.20068669774182 3.0 66.45845878552548 123.45766187453478 3.0 27.061850584414785 126.78213735985328 3.0 2.8041966305285393 131.8187677449169 3.0 197.19580336947146 135.39808684196433 3.0 11.135031371262453 149.48763082663368 3.0 19.573221598201766 157.43309784126171 3.0 167.14855808106256 152.89283627539419 3.0 32.27651036471169 154.28800324614193 3.0 160.99646215294302 159.99816465416424 3.0 117.57842045315761 153.96538111941561 3.0 41.119690343593234 165.2779536401959 3.0 146.81841963184439 162.3032248408544 3.0 165.95405427563333 166.24070263840605 3.0 96.809578043632897 168.25317001284847 3.0 102.83185704311103 171.01868752533187 3.0 147.29073027266006 179.64466736241326 3.0 186.43157934886634 183.65435702177331 3.0 194.91013379598718 193.15682846748444 3.0 92.205927031224263 197.19580336947146 3.0 14.195976565363233 197.19580336947146 3.0 188.11366816883825 197.19580336947146 3.0 93.381644682646751 7.2355364915600502 2 119.97978896257175 12.59100767625158 2 74.216501209586099 9.359601458149724 2 14.978015836761132 26.416865660091208 2 105.01763745484079 25.332222832187796 2 134.91398357559171 37.149240595022412 2 24.759957933088998 29.455850847457679 2 182.50871526065794 34.623263035042754 2 195.39867942092386 31.106336729436002 2 118.2454196940626 39.919232929172814 2 73.126718266691611 40.845271111196922 2 139.17636469912236 40.183085789679517 2 28.555877889167743 34.574547316749253 2 161.60824783990509 54.766623649585824 2 189.62752008008218 55.007944589254684 2 26.577865281273287 58.24687457738635 2 90.885027322100797 49.337248121719092 2 82.692715712576785 57.195453316066917 2 197.19580336947146 67.691483486889211 2 78.484193811219825 73.284081097803153 2 105.38810165781007 76.345722590905211 2 172.89113297410316 63.056936531483899 2 150.85168128440728 71.508415726191345 2 137.55577609666506 85.306507845754098 2 74.775910029097219 89.628353503456452 2 93.673347974589959 83.908985625551054 2 171.8898299858898 96.918112754026751 2 70.15472568818592 87.204905057161426 2 189.70202027583852 94.039412319356657 2 2.8209940023109223 92.598665237080908 2 195.60554390343304 106.58237386951436 2 73.953695980110581 109.37550109817144 2 153.99064023355822 106.57304043925961 2 7.5519565061599661 109.9086780540238 2 192.87912969774229 121.54616388881475 2 151.25999203426574 123.47804529186756 2 177.45057488414045 118.4367965060013 2 70.178503554336714 119.62286302547034 2 28.197602756469017 131.47335182505455 2 21.73111805437188 139.60956228142425 2 2.8041966305285393 146.40707547273868 2 16.666995231265204 138.18905112492254 2 142.74893418534538 141.00696126773826 2 156.52235891984543 149.9305249520655 2 8.2418139065066942 153.57915994074213 2 153.75561175240651 154.76068007945818 2 156.4013727965328 170.07785841130689 2 92.363468070053656 178.12425875526728 2 176.42319962125396 181.40953528246087 2 105.69185523143089 177.59875347006709 2 152.19430212495169 185.19992344904779 2 191.57321891127634 183.2459350101756 2 197.19580336947146 189.95615974955811 2 88.671912054846061 188.37808191201233 2 13.556443020734022 190.28434914204726 2 174.39478960532725 197.19580336947146 2 28.562704989753318 3.0011687818391408 2 82.542267628672548 14.750047802496805 2 122.63899140840084 2.8041966305285393 2 77.927278555805614 13.102259034709965 2 2.604196630528539 18.240263134619681 2 25.739589949545806 23.954860546111487 2 55.977705243144513 17.607807848850697 2 127.56502251271519 31.812675071838498 2 19.509058847074233 29.174457217806747 2 172.27886313928562 38.028858789853899 2 189.54428506736082 32.889593937972997 2 69.857196452781793 36.72502357438367 2 144.6646057373722 40.977602125927795 2 31.994967977802013 39.656186485881896 2 11.263397598012409 40.380633705291174 2 153.84300567943873 52.00950103636761 2 193.43342868300095 45.804724490704253 2 106.6170621542595 59.127700277732757 2 87.6774382790407 57.470283996603719 2 75.471442946321176 63.762377573100871 2 192.02721724330576 68.532120076162855 2 72.954936255946194 73.388990176752827 2 92.213917127451609 70.4854160392306 2 75.559974535380675 84.225921823647994 2 79.786017129316363 90.128999311215196 2 187.06430637753826 83.803985477033564 2 61.039990759664505 85.159711021036301 2 179.57037167842864 93.837907196954006 2 13.929593158518387 92.594358685240039 2 177.64251263561405 98.895077166792106 2 137.49694297710954 104.61767442026888 2 167.53054587541959 110.08684988810325 2 7.6683305327939308 115.29759444769432 2 193.28353568810616 111.9407271506843 2 146.58391819238898 113.70662538289946 2 190.76785471799064 126.37300829179414 2 26.917028839939615 121.51570906734401 2 81.366983419819462 129.62093817055074 2 32.420813921063719 129.08469781616239 2 150.21090568372276 138.16823788016532 2 25.189067331772819 135.42784275635776 2 28.227734662202241 147.00250636114009 2 194.96910354632334 139.61594093681504 2 43.464763488513881 136.10448602918945 2 12.362502189183372 145.42334135536507 2 196.19726866909988 148.24652085335916 2 23.24407100821475 148.88082683862669 2 26.536415631256737 157.48262765317048 2 166.19496893396658 159.59717448750584 2 3.2408884715556718 161.64783619902897 2 122.15123669656434 157.58427054348246 2 45.927140854245913 157.05360831958313 2 49.83869185999631 166.03317485272922 2 141.60717622364774 161.33241367367827 2 93.308393643639107 164.96085590133183 2 161.08980028378508 164.90509165652014 2 107.72484844516474 172.69984412336026 2 152.80120427180782 179.69150563665093 2 30.346157338837031 180.68636649083103 2 177.80066648737869 187.12490542960373 2 190.31795510886943 192.53156729032469 2 87.108138057287903 193.69711270970384 2 9.8395971213743785 194.09578738658095 2 180.14596055170924 191.77955162403671 2 115.05339476202424 15.608003082251818 2 68.716992318437306 10.369690376054582 2 10.968332353457434 20.707047181001922 2 62.377732016846998 29.034084334086515 2 114.58907802501751 21.18343004489719 2 136.7464546075571 32.111314374563108 2 36.2571451803786 24.11037825391573 2 179.72097176328865 39.621757608004103 2 187.37277302194309 28.685025859650917 2 119.45662834367774 33.440864447114123 2 68.904957766519288 44.60300788326898 2 140.76570462721344 45.043109333146141 2 34.995318140374536 35.681066182381322 2 159.48351276471308 44.409532079936923 2 188.28729113596137 46.047884140723149 2 24.421078088695531 63.162116731712665 2 95.673083730701975 54.218385990286315 2 87.195617802696916 67.225315121699026 2 193.19829422165509 58.73185949730582 2 87.931897538800698 73.388230440533306 2 146.0312852708355 67.162162235078796 2 132.58181696658531 83.085972308508531 2 80.848402942980726 99.165614144303504 2 88.592578719219858 93.005791183187725 2 178.54952110373202 88.311715650295525 2 188.20698736059211 98.92923078741336 2 6.3102417459188525 88.615314721434146 2 193.69900569760097 97.733454734276151 2 69.90917209824093 112.84884612158123 2 127.29107783955565 109.58396752471775 2 159.27520461081966 104.95018532361382 2 2.8041966305285393 106.57519112116553 2 187.29555545669584 120.62440569545858 2 174.04557892159158 123.55703792836343 2 56.625285100763676 126.85824726192085 2 33.467149591575193 139.71778648776527 2 146.36144945951656 129.12828504796585 2 20.260705496056609 144.84121522943818 2 2.8041966305285393 136.68804898411062 2 37.673183830632453 136.12214985531747 2 190.13870875739045 139.77927151070742 2 11.724433537074239 140.65890949158492 2 173.65415959317039 149.18026450364454 2 18.645682502941444 152.47339891202901 2 161.92109303605213 150.83110856778544 2 36.075624222974184 157.28999541514801 2 2.8041966305285393 156.48110859060998 2 126.34968562775096 159.5392810784777 2 40.595200871290963 160.30754036590645 2 43.988242667601192 151.62802016882031 2 144.04391573684595 156.48724420983157 2 164.7658206993132 174.72066163324104 2 95.778773815590711 182.67820990085241 2 175.50298199890781 175.79629536421052 2 105.67347883129486 185.15713217984907 2 159.08928257417796 180.19918739315852 2 197.19580336947146 185.06712809742308 2 81.005719643030602 189.50185332555608 2 19.790114575617295 182.69629242083073 2 179.14291707164844 196.70766213718568 2 38.124203770768311 2.404196630528539 2 81.499704927352226 8.9920921318378486 2 127.81091361105749 4.5933678565265472 2 9.5871083082379815 25.994398382286025 2 18.469222075042293 16.273244835929386 2 60.318221994733314 14.687281866829901 2 132.40975575042538 29.299315683812654 2 175.13601931451575 28.938778023110615 2 191.77889375600907 40.847953898804327 2 114.68179070810929 35.74067554695965 2 64.977751698315316 35.051437233321209 2 146.48127328890362 30.671837576784245 2 16.221665826076272 45.187855171558716 2 152.22707457589954 46.774865413264934 2 197.19580336947146 49.453841277711319 2 20.806369047088971 57.661988155811308 2 83.222236300191057 70.6957147785958 2 177.25464193244542 71.771784389904354 2 147.1553377975961 77.37360406085628 2 131.83357451973438 77.886417384972574 2 74.562278023766837 78.495835691914593 2 80.924535668068387 85.04508669518215 2 189.08723922335841 88.785149220425907 2 12.740593637383311 100.86145923178557 2 186.19961344077257 103.81662412360656 2 74.59815133683567 99.109940845127795 2 129.32866316578244 102.1314042707271 2 157.49177936898798 112.14285512432508 2 2.8041966305285393 117.34759360439176 2 184.37137289443314 109.00666792644274 2 141.90704773299726 110.87661372222493 2 184.81967853239664 125.25942402177176 2 30.967242967159468 117.76946324772425 2 66.896360880952471 128.96865039131779 2 71.993312748883824 129.48431178943386 2 22.251161240916929 124.62153000636222 2 145.36283564446086 136.4173161478692 2 7.430157653571837 134.54264219161459 2 197.19580336947146 130.13992708615152 2 6.5795055088092438 149.14956321388721 2 147.15532097579558 150.04650053088386 2 23.23272912669832 153.8934709973023 2 171.68915674449897 153.65840932289132 2 156.08751523008249 159.76008041580786 2 150.73378624158764 165.98217146554066 2 89.576266450985543 155.26600128523242 2 170.9851020472091 167.09406390496088 2 92.841267867228623 172.59175567678363 2 98.224375959231324 173.11946987498146 2 145.78559465817122 184.94206384410521 2 181.39094834712805 183.12685699064039 2 197.19580336947146 197.19580336947146 2 92.469946755469778 192.24600978219829 2 192.51133434253219 197.19580336947146 2 90.167347707042481 2.8041966305285393 2 125.01674517735314 15.049636822729646 2 74.451456577417702 3.9861729873407734 2 16.253436459173663 21.106458015999554 2 109.7603511958005 27.508975943906879 2 129.55956646381583 36.9740246542272 2 29.976711118446506 28.880345317032564 2 187.12210378761412 37.686804185548603 2 197.19580336947146 26.185130855095551 2 123.30215859020998 37.441809425759914 2 77.957468182361296 43.438452815327445 2 141.06204724589443 35.324950233879065 2 158.92150433198509 49.907763925736731 2 184.31572727592194 54.976672145211403 2 24.270515688445826 53.862425245089433 2 86.564962642959557 52.418922087066143 2 77.517667029163306 56.768110391289774 2 193.88545593797633 63.620625532269834 2 75.45762589316125 68.765720503636857 2 108.40398922246088 71.884018438052394 2 172.96163252200714 68.627641795913007 2 153.2278085461985 76.577888053706559 2 132.39114817494459 88.481363251755354 2 72.020386757382056 94.075599440843476 2 89.790394806883455 87.584472041195156 2 174.50977886093321 92.211486063350094 2 65.212504306581138 88.808663779801989 2 194.73670674317012 92.220094074236656 2 2.8041966305285393 98.158010973165545 2 189.78188594403321 107.89011477158215 2 136.49674481220842 110.24711311242211 2 151.96200982609085 111.77042940615171 2 11.008038541486222 105.97299376381771 2 196.22593099021367 117.17526555967645 2 145.62828194977473 123.86020133981694 2 179.60141938018035 123.5856715587756 2 62.030989356485946 126.40979648607173 2 73.085842685802419 124.40758223702365 2 30.542318870476638 135.76504878513111 2 20.349357386143947 134.69198514234972 2 7.0967320127586868 139.58927636419796 2 192.48134860197104 132.92340625867621 2 138.67179492758126 137.64588808226887 2 13.934070674027945 158.33438203184429 2 34.286585921080061 162.88177064984183 2 158.56892055934938 155.06132464063899 2 7.3227344922878865 157.90652618120501 2 151.09463651779487 159.68747459900484 2 158.5889901967335 174.88848927937005 2 97.763307324319285 177.97086319986809 2 171.38808412559661 179.406855710526 2 101.76371252876947 181.34645873486761 2 157.77599139731262 185.5113024069833 2 188.4000696371713 187.91812130471783 2 193.06947899316972 188.05798126918668 2 89.935131943845107 183.05104308956365 2 17.187929147000638 186.91071384512722 2 170.59612403844514 193.67820850556478 2 120.58272750721741 7.4305486607654707 2 72.596172393565951 14.211446277085345 2 52.741455095067572 22.055700920926615 2 108.84607440878192 16.817117226632575 2 128.24640843133554 25.892198037366459 2 20.618037730329391 23.727219573736104 2 176.03223643455527 33.929148143281147 2 193.30817360886439 35.865947627499615 2 105.29102158329917 30.946303788599085 2 65.741794885236573 40.134356873116509 2 150.00597877508176 39.412229913471307 2 7.5692239950553777 36.466685088362013 2 153.93844559937932 57.489353703505522 2 197.19580336947146 43.03217092806441 2 79.621389531073177 61.400273032445007 2 193.1530771372054 73.529478390054138 2 68.923866492419748 76.977272635692543 2 79.60200312710468 80.010894839672403 2 83.250456211968867 94.245773633550499 2 192.25333173679985 83.192425121581493 2 65.816686109532213 83.271827636487814 2 184.68231680471726 92.659815639934394 2 8.4745456909567007 93.143127428565194 2 175.87581211995845 104.06541817258928 2 70.013985040239788 106.46842976839294 2 132.33594882481981 106.65030086148964 2 164.55600644007666 114.94371418081198 2 13.054900685289148 115.44787382383771 2 190.75261893459782 116.62862395096606 2 148.03331851290889 118.95585356683615 2 187.12378567329924 130.16469271047455 2 35.498397172242377 121.26797782721286 2 76.928048342720089 127.80506205100254 2 31.516297956412977 124.31796506055274 2 148.07375441173778 142.96677629735703 2 22.960333319387711 130.12817351346817 2 24.827124763915023 143.69874355823086 2 197.19580336947146 143.70199110201037 2 16.358286104022987 148.35460804449247 2 143.70055532860439 146.23231917068887 2 197.19580336947146 152.79050024409935 2 27.884842449079159 152.06637961449465 2 170.42215850816103 161.9691054212096 2 4.2807514656986623 166.68926033796851 2 46.097612102040479 162.51829979711246 2 45.374902193193357 167.72396101067659 2 143.77034759640492 166.65870735758457 2 96.549220933574716 161.38872296210829 2 155.90810491996967 164.92151601137874 2 86.895686671270326 177.59744965955204 2 105.8986409635739 167.2058772005287 2 152.8018032186568 174.18664977221704 2 172.68151771473885 185.43355761954524 2 185.43531917003952 192.48233694217905 2 81.725571730172859 195.04411994641237 2 4.8443217540073551 192.05470033959858 2 183.31575166829708 187.7957899509781 2 120.2142921217231 17.977422045505911 2 13.703286248166847 16.669571479181645 2 57.30257365777625 30.772256306943497 2 109.08604175444471 22.106638477619377 2 141.45544136489724 30.206189502098873 2 30.922908456198002 23.398549612957769 2 184.42712766403358 42.389281607806957 2 192.17605967596353 27.170240483223612 2 115.1905490511447 29.843416016262136 2 141.70993462986962 50.08559627658942 2 35.070463816301064 30.514172545901673 2 164.15267932299773 48.054278314862614 2 191.75418409657678 50.44261814678395 2 95.826848129340732 49.021328129253689 2 188.633735038813 61.804420271797227 2 83.2301514058789 76.127449397386883 2 178.21906300619381 64.783513019971807 2 145.24866330144326 72.176460263270243 2 128.17723530996616 81.031257293845655 2 77.449175436430423 94.799668696203952 2 84.788915066552775 88.895857231672451 2 183.03275725763382 97.991459609537955 2 11.670998665527497 87.271371026454446 2 191.72224035307659 102.83210638052536 2 65.54520967557032 116.26226065022466 2 131.47054427477445 111.56796373988021 2 160.07491830108481 99.503411128812459 2 6.4101549639814381 102.85145856253317 2 182.81900598862137 117.43257617036527 2 176.64683915776146 128.45371831379404 2 36.677383580263701 126.539195278021 2 75.708411202902468 119.466904843359 2 27.841536730501637 140.00933059361824 2 16.275639412606949 142.87991639505461 2 2.8041966305285393 141.68956197760735 2 34.78050604228271 132.9041833714503 2 7.6560510129975414 144.4866718229359 2 169.19567310515365 146.91457591698165 2 197.59580336947147 160.19665165698646 2 13.64218432659397 153.3323420820731 2 163.33287960363904 155.67680501557217 2 31.181281257031369 159.23008612249959 2 151.71331242039827 147.17414227431203 2 2.8041966305285393 151.69985146486391 2 40.722819827152016 155.33170026859878 2 148.87785606044133 154.84001675820761 2 161.96218259558719 170.09639267147421 2 94.880819180604291 187.74538726993353 2 197.19580336947146 175.42810689986405 2 174.90245692587547 170.50335665867462 2 100.22447741215271 186.55017235967858 2 163.76868733439051 183.15202425200042 2 197.19580336947146 180.44856948774694 2 84.318151787720922 185.00421185469199 2 183.67225042725653 197.19580336947146 2 97.292527609941303 70.404621130957011 2 32.554165793048767 149.7713947056281 2 39.273950011047766 139.86316372082041 2 12.309090465606367 136.03230877748311 2 85.904953805142426 62.232444602360509 2 94.437977610350714 75.090913588333976 2 91.957424331557846 65.540229425083083 2 110.65380611277111 61.451476733693674 2 </DataArray>
</Points>
<Cells>
<DataArray Name="connectivity" format="ascii" type="Int32">0</DataArray>
<DataArray Name="offsets" format="ascii" type="Int32">0</DataArray>
<DataArray Name="types" format="ascii" type="UInt8">1</DataArray>
</Cells>
<PointData>