<?xml version="1.0" ?>
<VTKFile byte_order="LittleEndian" type="UnstructuredGrid" version="0.1">
<UnstructuredGrid>
<Piece NumberOfCells="0" NumberOfPoints="731">
<Points>
<DataArray NumberOfComponents="3" format="ascii" type="Float32">6.5599146538630855 12.648681312769783 3.0 54.941124068142628 11.921985362418736 3.0 98.159973902819928 11.710085926465998 3.0 159.63532330786225 11.101247983457471 3.0 184.27068502048851 2.7844324457978455 3.0 169.99683566295022 19.305949720713102 3.0 181.86223776344551 21.931649683275005 3.0 87.838092633490845 26.239858178802834 3.0 99.671312725463338 27.636620223124314 3.0 47.816318302004291 35.913059586205371 3.0 63.464728659213471 48.348320336915805 3.0 10.195057459366375 53.544454746746432 3.0 39.199465952012119 57.357948972025362 3.0 127.74647795917858 60.087301236076037 3.0 53.805865241299998 69.435899261352972 3.0 30.338697104975022 72.395063243595601 3.0 24.978459596101438 73.655474680619605 3.0 184.26859811369962 73.876188112263705 3.0 111.94308301274211 88.284364143148522 3.0 40.163816736525462 87.928127914113759 3.0 62.462758656379584 100.01216928797997 3.0 46.1105953738723 98.764365825337222 3.0 82.704644887212794 115.01239819808444 3.0 102.83637480061083 108.99316051146916 3.0 128.25715754468155 125.77026531751743 3.0 112.90237792876496 124.37738929832878 3.0 105.91752643770053 133.10129616889833 3.0 100.03375181042942 139.28484193948924 3.0 160.83793819658624 140.2793587233283 3.0 121.99783136909637 138.1093015134955 3.0 75.992459569458262 136.10727925316795 3.0 67.620630895170905 137.88554785806448 3.0 52.652419826861298 148.53378203799073 3.0 124.66553716762299 150.05133799696353 3.0 54.751016854573471 160.65949098317941 3.0 185.6001653885051 146.04609362575624 3.0 76.707810395284156 160.1543153387706 3.0 98.122365303266591 151.3579414389387 3.0 84.365767960843456 164.44913264605145 3.0 132.31693153911021 170.0976954404039 3.0 112.023963605733 171.02899039496972 3.0 186.89563976600093 173.72146494551458 3.0 71.105709138601583 165.62483911759801 3.0 52.49983329099944 170.31171516676469 3.0 41.731925733665761 192.35697084983772 3.0 20.629511136144995 197.21556755420215 3.0 130.9778866829879 191.65753762637127 3.0 22.85151261820587 4.2381616376474502 2 57.689285768428277 2.7844324457978455 2 108.16140781306935 2.7844324457978455 2 158.39129886000734 6.5339640539249801 2 37.917089765732371 8.5193929192104658 2 191.15549677843597 12.667974877394391 2 165.09794512448073 12.755450351227015 2 185.98447616135314 14.446510766483145 2 70.237932346041134 22.49787057036238 2 96.493305986929215 16.471603959203982 2 102.09903873878147 35.648090062165529 2 44.577989476153789 32.293567202754154 2 53.970963508350657 43.565547924282065 2 2.7844324457978455 57.075865088440388 2 36.046792601898893 53.009748949931549 2 133.95141193196318 52.649127801351732 2 66.928276479173491 55.846939973283256 2 137.76888381907423 67.515501328205445 2 52.140478191217994 57.788521502186825 2 35.253568007060252 81.438113399203829 2 21.572860786392138 70.036052637127611 2 2.7844324457978455 77.003674726117438 2 164.28111656985871 85.883388727387427 2 57.10780712656468 87.201911937476922 2 62.949886822317836 94.469189427869637 2 40.602055397249494 105.68486965396963 2 96.056397146474552 121.28384865269041 2 122.05677226194261 107.8273501538992 2 112.45403158120406 117.00563750366257 2 134.48772869950724 132.11716380671126 2 48.946569433208424 117.1909882357899 2 112.36636847570762 135.78166546615566 2 86.183329892404899 129.78344182299983 2 111.99716509148422 148.90408906862228 2 84.067882129944437 141.58249068102415 2 76.383385743456699 149.02986842432597 2 66.295478172234596 153.78209653645462 2 71.444309019872435 149.54300738525777 2 109.17805614168853 160.77840268710253 2 140.31553734374003 171.63268669054665 2 123.61637214919845 172.81322463369989 2 6.9358517160583686 173.8087876247001 2 39.991414463156964 176.66157848740991 2 76.123734363912504 183.07818417930108 2 54.571682149933707 186.07868192183858 2 36.200137715902208 184.82125446450902 2 130.57299890294036 197.21556755420215 2 44.246625767660291 11.754932595112455 2 99.243753228225174 2.7844324457978455 2 170.63358172793806 2.7844324457978455 2 182.33225658918627 6.9764813478365761 2 169.82737098178364 14.873826369195257 2 177.90319995954349 7.3520434361486426 2 145.93506608514406 14.276610695204116 2 80.670529816304182 30.507171991458627 2 91.503136204468106 29.085656803764241 2 56.046268983331665 39.060561033985969 2 99.754080030518111 43.566880315472112 2 45.79604689857625 54.037399962720329 2 129.84142319193683 55.870722565172784 2 61.543758597798593 70.24207981038488 2 124.3959005263672 68.832605530362244 2 39.084502080760672 72.409363884485984 2 34.845489575301663 65.801075202699465 2 11.478681759577578 82.178381416005408 2 122.34043761516885 87.053143398196298 2 169.56329394956862 86.669118034821722 2 48.656713918328627 91.179668040731002 2 57.166235055122556 100.93636382703251 2 53.252765950036263 109.87833399809297 2 108.72021397231237 103.01256915983026 2 124.80257286235967 124.85143273738049 2 108.03018256210866 129.45913505281337 2 97.136356063773391 125.95447311542686 2 97.106418458044672 131.06743285130483 2 104.11844219199409 139.94478402461422 2 85.59084694018749 150.22756016736506 2 63.385743288347612 138.91918940503805 2 134.64833055468955 155.21702301263775 2 55.709517593927977 141.35298944590718 2 187.65751605240209 157.28925414830476 2 77.357468014815083 155.23647080385919 2 179.08218273610751 159.85242600408031 2 77.144610625352598 168.77403813726247 2 128.21794854964708 162.59928822347777 2 22.824142164459879 177.30531014394387 2 189.62596490341065 171.19610639994181 2 4.5602625962150167 178.55178161923766 2 35.079417751099584 171.17519353521709 2 65.258562818220852 172.6131812593128 2 58.321347921136457 177.43609421605194 2 34.651429676496065 197.21556755420215 2 27.106554136797826 192.89512306318343 2 132.9053154828114 186.10435090624316 2 14.735384643607748 5.2458829137154179 2 2.7844324457978455 2.7844324457978455 2 61.574043587858462 4.6195784442859233 2 145.84058453565234 2.7844324457978455 2 30.41363927724834 10.429968487935323 2 165.61179280383408 17.070677780930517 2 87.344034035513914 18.695936444059225 2 150.68043637892572 27.175101483932494 2 91.142374585429081 39.745883663726467 2 95.146519505855323 41.180253091719564 2 45.594235080604996 40.517008116195022 2 111.85000978666805 45.783362110129325 2 57.131381368413763 53.951475024106507 2 2.7844324457978455 43.062896961644192 2 35.098593255244509 57.948921922600491 2 143.39281225400916 56.036992945383595 2 68.686653519899664 59.86781942009145 2 138.12101247299307 56.562569769337678 2 50.314395209334272 62.228592100107157 2 54.325724440463929 76.420242698783653 2 15.551954997477079 68.664293942246161 2 7.2523470467463982 70.795725109460065 2 49.503927334116355 86.930316984531188 2 35.51916652593529 97.24692572568361 2 88.577698941846208 103.18616818642536 2 98.391779599708556 110.18705483553556 2 118.97953087419 112.48034243960154 2 132.86431489613827 136.56795714157602 2 113.30436520628884 129.7774050086675 2 83.669918866613244 125.74749196239942 2 104.31091954156497 144.27495068593984 2 176.57753598743361 134.46206951373082 2 88.027734064382983 139.40708553923994 2 71.845008123399523 138.20879742837255 2 132.85204069861905 145.40536872058698 2 68.140129621466599 161.88943592318142 2 64.04079623151425 146.28808364618598 2 113.38839006387688 153.21010639515819 2 179.81218494188889 149.99741265341177 2 135.42687891954105 173.43962062644178 2 116.06502340620064 172.38843995482324 2 22.968087697975825 166.35214464775322 2 186.02449919568514 165.12195477635549 2 31.527327407749144 176.23267316291083 2 76.857525531659491 178.34762376993922 2 50.687386696307854 176.57731914570974 2 33.016965804329786 189.5016924396667 2 122.85938834088606 197.17570041539423 2 19.079231455946804 7.0128401764506281 2 7.257732816718641 9.3797710792371856 2 47.945674945938386 15.615254131794737 2 101.06367771859672 7.3197566491716231 2 155.24365193554547 12.927043434457948 2 23.750207438840111 12.793937671841931 2 193.58189745608857 5.3411492515523546 2 168.65576982212033 27.039237521742365 2 173.0679001099013 25.48032465373128 2 75.249623305649806 25.329642052468223 2 134.97311502097278 14.374379411834528 2 84.384530131703642 22.671690134639373 2 95.860793148839761 31.285470729942464 2 107.57942942338087 52.501345512959936 2 70.465536716197732 47.311399868666044 2 40.633710024048462 52.458945897786208 2 120.13518915461455 65.461337590041907 2 61.79860179402791 64.934693581985599 2 132.66003923466315 67.350032204212823 2 43.504472804501695 73.16785817767844 2 26.326993477532692 69.145628061972843 2 28.496166834647763 76.242566414586364 2 6.8461797505766047 80.80947889138524 2 116.79976496511382 86.409720454713266 2 44.513070838653469 84.704484581514237 2 59.175613131089541 96.542369714307824 2 45.879836381541317 105.07039208572738 2 106.5696222174623 111.32343679776342 2 129.38987231151864 133.38926287857694 2 121.5452669218875 128.59124484224711 2 133.81763313314423 118.30209892847682 2 101.31827834060388 132.01976443197566 2 96.006049176273635 142.85627755865221 2 166.54653521508612 133.4491812022379 2 116.65566215551047 138.29237485260737 2 53.523688795625837 152.82606391537172 2 127.16942125803858 142.68349229635928 2 59.0943552793888 153.42482972918754 2 187.43817151788951 150.62436111774866 2 72.308473451336411 160.89525703495752 2 96.27391737522035 147.22802059652068 2 80.675558195341992 157.18687884274237 2 124.0934898135397 167.62711486161513 2 13.172412126995848 174.16239840544114 2 73.24631076054122 170.48166043467089 2 55.960839462261617 167.03589250461565 2 44.64889744060298 196.7544420336944 2 127.967370258419 187.39025078705808 2 16.572316156616957 2.7844324457978455 2 50.86746392326593 6.706174989146068 2 112.29920797396235 2.7844324457978455 2 152.76260243159643 2.7844324457978455 2 197.21556755420215 9.843342549137045 2 164.9139869718411 8.8188929154423104 2 186.98
[...]
<PointData>
<DataArray Name="Points" NumberOfComponents="3" format="ascii" type="Float32">6.5599146538630855 12.648681312769783 3.0 54.941124068142628 11.921985362418736 3.0 98.159973902819928 11.710085926465998 3.0 159.63532330786225 11.101247983457471 3.0 184.27068502048851 2.7844324457978455 3.0 169.99683566295022 19.305949720713102 3.0 181.86223776344551 21.931649683275005 3.0 87.838092633490845 26.239858178802834 3.0 99.671312725463338 27.636620223124314 3.0 47.816318302004291 35.913059586205371 3.0 63.464728659213471 48.348320336915805 3.0 10.195057459366375 53.544454746746432 3.0 39.199465952012119 57.357948972025362 3.0 127.74647795917858 60.087301236076037 3.0 53.805865241299998 69.435899261352972 3.0 30.338697104975022 72.395063243595601 3.0 24.978459596101438 73.655474680619605 3.0 184.26859811369962 73.876188112263705 3.0 111.94308301274211 88.284364143148522 3.0 40.163816736525462 87.928127914113759 3.0 62.462758656379584 100.01216928797997 3.0 46.1105953738723 98.764365825337222 3.0 82.704644887212794 115.01239819808444 3.0 102.83637480061083 108.99316051146916 3.0 128.25715754468155 125.77026531751743 3.0 112.90237792876496 124.37738929832878 3.0 105.91752643770053 133.10129616889833 3.0 100.03375181042942 139.28484193948924 3.0 160.83793819658624 140.2793587233283 3.0 121.99783136909637 138.1093015134955 3.0 75.992459569458262 136.10727925316795 3.0 67.620630895170905 137.88554785806448 3.0 52.652419826861298 148.53378203799073 3.0 124.66553716762299 150.05133799696353 3.0 54.751016854573471 160.65949098317941 3.0 185.6001653885051 146.04609362575624 3.0 76.707810395284156 160.1543153387706 3.0 98.122365303266591 151.3579414389387 3.0 84.365767960843456 164.44913264605145 3.0 132.31693153911021 170.0976954404039 3.0 112.023963605733 171.02899039496972 3.0 186.89563976600093 173.72146494551458 3.0 71.105709138601583 165.62483911759801 3.0 52.49983329099944 170.31171516676469 3.0 41.731925733665761 192.35697084983772 3.0 20.629511136144995 197.21556755420215 3.0 130.9778866829879 191.65753762637127 3.0 22.85151261820587 4.2381616376474502 2 57.689285768428277 2.7844324457978455 2 108.16140781306935 2.7844324457978455 2 158.39129886000734 6.5339640539249801 2 37.917089765732371 8.5193929192104658 2 191.15549677843597 12.667974877394391 2 165.09794512448073 12.755450351227015 2 185.98447616135314 14.446510766483145 2 70.237932346041134 22.49787057036238 2 96.493305986929215 16.471603959203982 2 102.09903873878147 35.648090062165529 2 44.577989476153789 32.293567202754154 2 53.970963508350657 43.565547924282065 2 2.7844324457978455 57.075865088440388 2 36.046792601898893 53.009748949931549 2 133.95141193196318 52.649127801351732 2 66.928276479173491 55.846939973283256 2 137.76888381907423 67.515501328205445 2 52.140478191217994 57.788521502186825 2 35.253568007060252 81.438113399203829 2 21.572860786392138 70.036052637127611 2 2.7844324457978455 77.003674726117438 2 164.28111656985871 85.883388727387427 2 57.10780712656468 87.201911937476922 2 62.949886822317836 94.469189427869637 2 40.602055397249494 105.68486965396963 2 96.056397146474552 121.28384865269041 2 122.05677226194261 107.8273501538992 2 112.45403158120406 117.00563750366257 2 134.48772869950724 132.11716380671126 2 48.946569433208424 117.1909882357899 2 112.36636847570762 135.78166546615566 2 86.183329892404899 129.78344182299983 2 111.99716509148422 148.90408906862228 2 84.067882129944437 141.58249068102415 2 76.383385743456699 149.02986842432597 2 66.295478172234596 153.78209653645462 2 71.444309019872435 149.54300738525777 2 109.17805614168853 160.77840268710253 2 140.31553734374003 171.63268669054665 2 123.61637214919845 172.81322463369989 2 6.9358517160583686 173.8087876247001 2 39.991414463156964 176.66157848740991 2 76.123734363912504 183.07818417930108 2 54.571682149933707 186.07868192183858 2 36.200137715902208 184.82125446450902 2 130.57299890294036 197.21556755420215 2 44.246625767660291 11.754932595112455 2 99.243753228225174 2.7844324457978455 2 170.63358172793806 2.7844324457978455 2 182.33225658918627 6.9764813478365761 2 169.82737098178364 14.873826369195257 2 177.90319995954349 7.3520434361486426 2 145.93506608514406 14.276610695204116 2 80.670529816304182 30.507171991458627 2 91.503136204468106 29.085656803764241 2 56.046268983331665 39.060561033985969 2 99.754080030518111 43.566880315472112 2 45.79604689857625 54.037399962720329 2 129.84142319193683 55.870722565172784 2 61.543758597798593 70.24207981038488 2 124.3959005263672 68.832605530362244 2 39.084502080760672 72.409363884485984 2 34.845489575301663 65.801075202699465 2 11.478681759577578 82.178381416005408 2 122.34043761516885 87.053143398196298 2 169.56329394956862 86.669118034821722 2 48.656713918328627 91.179668040731002 2 57.166235055122556 100.93636382703251 2 53.252765950036263 109.87833399809297 2 108.72021397231237 103.01256915983026 2 124.80257286235967 124.85143273738049 2 108.03018256210866 129.45913505281337 2 97.136356063773391 125.95447311542686 2 97.106418458044672 131.06743285130483 2 104.11844219199409 139.94478402461422 2 85.59084694018749 150.22756016736506 2 63.385743288347612 138.91918940503805 2 134.64833055468955 155.21702301263775 2 55.709517593927977 141.35298944590718 2 187.65751605240209 157.28925414830476 2 77.357468014815083 155.23647080385919 2 179.08218273610751 159.85242600408031 2 77.144610625352598 168.77403813726247 2 128.21794854964708 162.59928822347777 2 22.824142164459879 177.30531014394387 2 189.62596490341065 171.19610639994181 2 4.5602625962150167 178.55178161923766 2 35.079417751099584 171.17519353521709 2 65.258562818220852 172.6131812593128 2 58.321347921136457 177.43609421605194 2 34.651429676496065 197.21556755420215 2 27.106554136797826 192.89512306318343 2 132.9053154828114 186.10435090624316 2 14.735384643607748 5.2458829137154179 2 2.7844324457978455 2.7844324457978455 2 61.574043587858462 4.6195784442859233 2 145.84058453565234 2.7844324457978455 2 30.41363927724834 10.429968487935323 2 165.61179280383408 17.070677780930517 2 87.344034035513914 18.695936444059225 2 150.68043637892572 27.175101483932494 2 91.142374585429081 39.745883663726467 2 95.146519505855323 41.180253091719564 2 45.594235080604996 40.517008116195022 2 111.85000978666805 45.783362110129325 2 57.131381368413763 53.951475024106507 2 2.7844324457978455 43.062896961644192 2 35.098593255244509 57.948921922600491 2 143.39281225400916 56.036992945383595 2 68.686653519899664 59.86781942009145 2 138.12101247299307 56.562569769337678 2 50.314395209334272 62.228592100107157 2 54.325724440463929 76.420242698783653 2 15.551954997477079 68.664293942246161 2 7.2523470467463982 70.795725109460065 2 49.503927334116355 86.930316984531188 2 35.51916652593529 97.24692572568361 2 88.577698941846208 103.18616818642536 2 98.391779599708556 110.18705483553556 2 118.97953087419 112.48034243960154 2 132.86431489613827 136.56795714157602 2 113.30436520628884 129.7774050086675 2 83.669918866613244 125.74749196239942 2 104.31091954156497 144.27495068593984 2 176.57753598743361 134.46206951373082 2 88.027734064382983 139.40708553923994 2 71.845008123399523 138.20879742837255 2 132.85204069861905 145.40536872058698 2 68.140129621466599 161.88943592318142 2 64.04079623151425 146.28808364618598 2 113.38839006387688 153.21010639515819 2 179.81218494188889 149.99741265341177 2 135.42687891954105 173.43962062644178 2 116.06502340620064 172.38843995482324 2 22.968087697975825 166.35214464775322 2 186.02449919568514 165.12195477635549 2 31.527327407749144 176.23267316291083 2 76.857525531659491 178.34762376993922 2 50.687386696307854 176.57731914570974 2 33.016965804329786 189.5016924396667 2 122.85938834088606 197.17570041539423 2 19.079231455946804 7.0128401764506281 2 7.257732816718641 9.3797710792371856 2 47.945674945938386 15.615254131794737 2 101.06367771859672 7.3197566491716231 2 155.24365193554547 12.927043434457948 2 23.750207438840111 12.793937671841931 2 193.58189745608857 5.3411492515523546 2 168.65576982212033 27.039237521742365 2 173.0679001099013 25.48032465373128 2 75.249623305649806 25.329642052468223 2 134.97311502097278 14.374379411834528 2 84.384530131703642 22.671690134639373 2 95.860793148839761 31.285470729942464 2 107.57942942338087 52.501345512959936 2 70.465536716197732 47.311399868666044 2 40.633710024048462 52.458945897786208 2 120.13518915461455 65.461337590041907 2 61.79860179402791 64.934693581985599 2 132.66003923466315 67.350032204212823 2 43.504472804501695 73.16785817767844 2 26.326993477532692 69.145628061972843 2 28.496166834647763 76.242566414586364 2 6.8461797505766047 80.80947889138524 2 116.79976496511382 86.409720454713266 2 44.513070838653469 84.704484581514237 2 59.175613131089541 96.542369714307824 2 45.879836381541317 105.07039208572738 2 106.5696222174623 111.32343679776342 2 129.38987231151864 133.38926287857694 2 121.5452669218875 128.59124484224711 2 133.81763313314423 118.30209892847682 2 101.31827834060388 132.01976443197566 2 96.006049176273635 142.85627755865221 2 166.54653521508612 133.4491812022379 2 116.65566215551047 138.29237485260737 2 53.523688795625837 152.82606391537172 2 127.16942125803858 142.68349229635928 2 59.0943552793888 153.42482972918754 2 187.43817151788951 150.62436111774866 2 72.308473451336411 160.89525703495752 2 96.27391737522035 147.22802059652068 2 80.675558195341992 157.18687884274237 2 124.0934898135397 167.62711486161513 2 13.172412126995848 174.16239840544114 2 73.24631076054122 170.48166043467089 2 55.960839462261617 167.03589250461565 2 44.64889744060298 196.7544420336944 2 127.967370258419 187.39025078705808 2 16.572316156616957 2.7844324457978455 2 50.86746392326593 6.706174989146068 2 112.29920797396235 2.7844324457978455 2 152.76260243159643 2.7844324457978455 2 197.21556755420215 9.843342549137045 2 164.9139869718411 8.8188929154423104 2 186.98937609891414 22.383151759528491 2 89.556486102166005 21.868268369127243 2 82.358604259421014 38.964397338735601 2 55.463581937422518 48.07722205421247 2 2.7844324457978455 52.196543738173993 2 31.217804181691889 54.803497715896562 2 58.744681263051135 62.228045971294677 2 44.83337677158066 80.946462586887549 2 14.522638777903893 63.914220191829237 2 186.31406762745507 77.961144806178766 2 111.55748571043789 68.129694838172185 2 163.10471345426808 80.542513565340244 2 52.064427445167105 94.699883679332288 2 33.613542232821388 102.86946964251992 2 102.33257006372781 118.34345974901164 2 106.91758397752292 116.19478771677989 2 133.22286471204308 126.60407669689295 2 43.849967100608083 117.92491623333348 2 107.72479377616179 136.70845019605028 2 93.731307440763445 128.88504775517058 2 116.89811745415984 146.55040751766441 2 83.986621386446799 137.36457785113913 2 72.842563498294169 145.50201580108791 2 64.840361748462314 158.46874862862427 2 65.609457442713321 142.4312149289571 2 113.73716871844354 158.14494098590407 2 81.983161209306942 169.16117908282999 2 137.26143615963568 163.25002108945037 2 119.75698961724611 169.32475672312836 2 15.327748588089628 170.26891245973536 2 191.39239001800124 159.53318560103892 2 37.925040786140549 180.55995154213826 2 66.955571680089122 183.09546659229474 2 49.979223064638454 182.04852586687568 2 41.15747070634761 183.71009354404163 2 140.72892645865176 192.06593414654648 2 43.816522678673685 2.7844324457978455 2 94.897686290224186 2.7844324457978455 2 173.77868597752428 5.8157323889326467 2 187.05336322074695 6.2194511331179454 2 177.35082558279245 19.648000516130384 2 181.73677753797239 17.045689944039999 2 140.04639198417888 20.603362607293992 2 90.662155595062771 32.748586311324793 2 98.879741248766322 22.91027853592259 2 48.815406261840188 43.799733265395133 2 103.82532932168085 39.887634799107879 2 9.8528668068903063 61.978527797913053 2 43.484058261292788 60.910667365127516 2 122.83425437852813 56.858567513357421 2 54.618661617044623 64.549667401261885 2 40.594510873074704 78.8872295700412 2 42.048056795941939 64.86575497559231 2 24.950608598352652 79.860887886809934 2 11.99779833346682 72.410755878509889 2 124.99441947255016 76.298770130473144 2 38.403519543319923 92.653990954272572 2 58.685436270562271 109.53339761500507 2 50.329020866827108 99.878984358143043 2 86.795991396266558 122.42256069964597 2 117.39839485880961 107.42829220252626 2 125.58459116254632 120.29637883109613 2 108.98895560993151 122.86233994520384 2 102.75712800967848 124.50837983491439 2 92.017823510166124 138.15730120722134 2 112.23174920184672 144.43416239289766 2 180.53783404415034 145.25018267339624 2 80.048437173325183 142.99756930461521 2 55.648579334392871 134.7992345675361 2 60.515134818754802 142.9394879849369 2 73.343672816427443 156.69074378953076 2 182.95860601166183 158.28085048239103 2 129.82605456512226 157.27414845464531 2 118.3343922064746 164.56609229138826 2 24.516689961068256 169.82106470912592 2 193.09703234372776 164.64525364745793 2 11.183187194036041 181.72592142170811 2 62.070460491655972 175.04654197415832 2 54.206047984537669 180.49130346915251 2 185.32638688932519 170.31836202944604 2 39.726657333117572 197.21556755420215 2 25.194784047542772 197.21556755420215 2 139.50331586129391 186.78987139800165 2 6.8539683016926141 2.7844324457978455 2 2.7844324457978455 6.2148945599085961 2 146.10127064135241 8.8360622395364192 2 32.453069536620411 15.014461793970028 2 161.88276527405864 20.14274207657542 2 75.632365088703182 30.982540472809326 2 149.48205133127445 18.422885496416757 2 44.470266993260893 45.559999696549852 2 106.80887476061659 42.926281098005468 2 53.468071516497474 52.035022296130734 2 9.8842365972948407 48.237811245731017 2 29.020633048150501 64.082572345174668 2 136.23158844916969 63.216583273799444 2 46.435996322714601 64.974786803072504 2 48.451499890919251 74.557259183070201 2 17.912111107858159 77.513092961290695 2 2.7844324457978455 67.573929236465389 2 119.81665543943022 77.060917907066425 2 49.331268367525922 82.861441337354563 2 38.368659703770611 101.55786136226314 2 90.550163482418114 108.16420421898172 2 95.841806341052219 113.54781985250759 2 129.69169962820948 117.63458492292794 2 121.17503024605867 120.85177434398126 2 47.006945140924692 124.03867821848344 2 122.55687382304342 133.0141383626185 2 90.813619783665061 121.11446157970163 2 157.35026127211489 128.48622249458413 2 108.17296533446914 152.23875829344703 2 175.90502380915549 138.40231540426717 2 91.928284529373869 142.82342344881025 2 49.126482868106926 140.68904928262242 2 60.963307291152375 165.59568605369753 2 57.05881334252954 150.24787440357477 2 105.76519088426998 156.77306281773676 2 181.75359055911713 153.74680225148251 2 86.36771274237347 159.78615659109118 2 128.29169044945078 172.54255790112146 2 114.33219092454939 177.18060199507707 2 17.893579160560417 174.75345857206338 2 31.176987610434647 171.68328524696807 2 69.349302280415699 173.3921230296518 2 46.934132611897702 177.83763803653187 2 32.050773350758099 184.98182852550124 2 123.87250781227958 190.80928808148337 2 10.895199001074673 12.421761296582201 2 55.265750508891976 7.1447618529146117 2 96.129556351718804 7.5021645259808363 2 160.67806637747142 15.358769918749672 2 189.78009356987505 2.7844324457978455 2 173.14517430152958 21.346227299745735 2 177.48028524663624 24.053726812780649 2 135.3457826184156 19.806128287154763 2 83.844109553633359 27.348124032409729 2 52.995223118508157 34.802657816270028 2 62.470372055082407 53.833604851939761 2 7.1371170024238157 57.779905762875721 2 42.942547572604539 56.638135169785755 2 127.78517256350989 65.409339571688832 2 65.388364108488304 68.407184690015086 2 52.320273552885411 72.702768788864745 2 33.90300099642613 75.00838468925383 2 21.564463630598052 75.637106483775256 2 110.37354887511931 83.374097981428832 2 35.185564498641448 88.239913408592983 2 63.713714877112906 105.33759828934404 2 47.82443402949815 95.151144256386161 2 88.03331707421205 117.03525362028837 2 102.33609936660858 113.9463473392976 2 125.85513784486189 130.10716385152284 2 114.0096536633752 120.85950128488832 2 110.33409531422315 132.61346498602245 2 103.03311663550336 135.87243764821474 2 160.78902260960888 135.65985936066238 2 123.4251862813303 141.55951418254844 2 80.331022603578703 134.20361272470959 2 51.980602256292521 143.73883801332087 2 122.88544693597126 146.24058368111187 2 59.595223076511267 158.52759753675304 2 183.71805672516589 149.08246409569716 2 74.903701935524325 164.63317979097977 2 103.15014214134094 151.90809498415919 2 81.478315931101505 160.95807231585678 2 132.583424562093 165.08466482442341 2 114.78675776519383 167.51855065102342 2 14.742063574874509 178.70506386617814 2 68.949624344251419 168.94721417566129 2 57.372538348815638 172.11286220105524 2 40.250210400208914 187.83576703068911 2 135.75434614981552 190.62836897408766 2 26.377262280876394 2.7844324457978455 2 53.111300572421314 2.7844324457978455 2 106.12617979839848 6.7433370098058694 2 161.85148546620172 2.7844324457978455 2 39.709146014620366 13.898062996854428 2 193.46884206308383 16.002676523976884 2 169.539952533443 10.707130283267849 2 186.48452246625683 10.451935558284504 2 91.865633059257959 17.283842040570349 2 78.854037704889137 35.19531069939157 2 101.04883986879616 31.311155231186408 2 59.128574103091154 44.66405666882941 2 2.7844324457978455 62.159849399071305 2 32.030018343002531 49.693234304363671 2 139.34798088030823 52.53410381528758 2 71.330721853343093 52.914819546439851 2 141.68175369364442 64.756810641850819 2 50.185226421605911 54.808391509002114 2 39.801536357239115 83.434635874286258 2 19.512962783707042 65.592693242433555 2 2.7844324457978455 72.265310270481422 2 116.0744726187845 70.393352503782438 2 168.49714467730738 81.920947477961136 2 53.179876474174343 89.987450639230914 2 43.469033807553522 109.53836169117542 2 93.326740310414408 117.574237680053 2 123.1425635326319 112.70545894733543 2 115.25707527016958 113.9745757572411 2 137.45903205134601 129.30749708130335 2 13.694324578168883 123.5567829329716 2 115.52619033310816 133.60233813607834 2 88.763338008079856 134.776903045328 2 155.8205887962709 133.23300248093688 2 117.24628763997535 150.4917227586094 2 88.011109041478093 144.46577680785936 2 80.538432545270567 147.90805324077925 2 70.366537742451328 153.51359498403855 2 66.97823735722956 149.80253655072934 2 104.59326620933463 161.14384956745019 2 136.6209929089278 168.16500844322792 2 123.72391692186159 178.29044657109324 2 2.7844324457978455 172.29124027992475 2 44.205569163953975 174.03443396435543 2 73.392366526817156 187.59247335307018 2 49.568887806109615 187.38454791715878 2 36.769754153266 189.35655404495654 2 135.15684959854619 197.07635953451495 2 46.359284148689447 7.3411436214359291 2 103.57154529605995 2.7844324457978455 2 165.88367712248825 3.3075726684611344 2 181.72575445914677 11.720678910123555 2 173.50822841526576 10.817186835572594 2 177.14984423050547 11.92915314411513 2 141.64291103108172 10.781574913292628 2 86.548758224901832 30.944719213640692 2 95.775709629457864 26.615385106132436 2 44.202475363480936 49.657764699318911 2 134.15182869262244 58.238570532052542 2 59.17189880733644 74.483283775536478 2 120.88749409336586 71.932784740350584 2 38.823220333497439 67.591766628286095 2 34.842226823457224 70.33597755740621 2 23.16196763339865 85.587848655301471 2 15.748469142953457 81.818869690603023 2 43.54992780406684 91.475418385377822 2 55.091425465813884 105.33287227510213 2 48.359534748226281 109.49684521116205 2 109.65370342721033 107.76642894260965 2 120.79861351419305 124.94050091102143 2 110.7607631611216 126.98877032418639 2 100.20429346410597 127.67099024871203 2 98.424040908571968 135.25909825813289 2 100.09255588649114 143.36353980534156 2 84.022745011450098 146.0251167899269 2 61.126608833387571 134.79682503942331 2 134.19549265466546 150.1476845114951 2 58.69157726266765 138.66354618213688 2 190.24322748549247 154.33549567667058 2 80.634530258347539 152.11638133469026 2 181.35866386720284 163.1349680894254 2 79.331959730322907 164.69289689658029 2 133.16691621035397 160.30263588118621 2 27.377264