<?xml version="1.0" ?>
<VTKFile byte_order="LittleEndian" type="UnstructuredGrid" version="0.1">
<UnstructuredGrid>
<Piece NumberOfCells="0" NumberOfPoints="821">
<Points>
<DataArray NumberOfComponents="3" format="ascii" type="Float32">6.2626414405694 11.524178802309207 3.0 54.638953025169592 11.529631420374878 3.0 98.578410010223422 10.079840454818889 3.0 159.58895640015473 11.093843737515604 3.0 185.95615782592503 3.7940650588428144 3.0 170.51329654979108 20.013480050948385 3.0 181.50642134605829 22.343622796064725 3.0 132.82357534302741 19.700603660334249 3.0 88.294494826533466 26.48565734338278 3.0 98.85227620379321 27.798763353614735 3.0 16.046551013300483 37.634459884930465 3.0 48.149145412949053 36.776523175380468 3.0 63.418329930740967 50.52110768759885 3.0 9.3795199092935722 54.663567626100992 3.0 39.391485873855459 57.574115811994815 3.0 128.88371753593725 61.83278640177128 3.0 67.317936350935568 68.727877994231449 3.0 51.785638580704543 69.838236102356689 3.0 31.448527133919995 72.601906239322687 3.0 24.131341223950201 73.527748975242034 3.0 183.96393508278351 74.216938754608819 3.0 112.0928184024071 87.063664312716242 3.0 40.352398667217145 87.758901934655341 3.0 61.597787891927595 99.444801307595341 3.0 46.677353510894022 98.046195472631283 3.0 84.528696501731304 116.31032832832105 3.0 103.2242425510149 112.39770995237437 3.0 127.74527277884719 125.13123344355499 3.0 112.56970360031609 124.36140023601136 3.0 16.747374263379687 126.72370648639154 3.0 105.93831090561535 132.95408960218793 3.0 100.84607650302445 138.57190697799297 3.0 160.36458066979827 140.55621354026403 3.0 120.09686148297044 138.98411321293062 3.0 76.340635001571485 137.63864106394647 3.0 68.434626122814635 139.23583114997979 3.0 52.718154507769604 148.48060055837757 3.0 125.31158275786517 149.60899282145721 3.0 56.154308189884631 159.29770604708281 3.0 186.25246322036915 146.14480758206145 3.0 75.467751526797969 160.11320317181952 3.0 99.297532529766031 150.82390381784705 3.0 82.969857021719974 164.79932218174517 3.0 132.01837983974829 169.83302200310146 3.0 112.85468838152757 170.24245191018838 3.0 186.5588317614118 173.14456474614539 3.0 18.783784516114721 177.35897885356405 3.0 70.769405251446273 165.83354125572131 3.0 53.380981016621604 170.35309604301403 3.0 40.803734743643986 191.16803930199879 3.0 19.992231063949387 197.61556755420216 3.0 130.97233107234649 191.54018903056115 3.0 22.131673862821394 3.6614032920576345 2 56.835187436292344 3.0916097847028201 2 107.64596702529182 2.384432445797845 2 160.2328636364233 4.8798526395350015 2 37.973332189198459 9.1358981655352469 2 191.46517844764909 12.764543218392166 2 166.13550211004704 11.540509323148951 2 185.50548143091308 14.652566039690591 2 70.312847824264352 24.099527722585517 2 95.879747507223541 16.862881031299295 2 77.89853077064646 35.94625255385602 2 101.26939327088044 35.247609939274703 2 45.475877843110553 33.304795637216344 2 53.443214400258533 44.27438493972889 2 2.384432445797845 56.984922014562642 2 36.18766412000447 54.470150094688435 2 134.56611485808378 54.113730860925692 2 66.521236300102643 55.998961750732484 2 138.4431024401803 67.424476816695076 2 51.178659079673466 58.454630984405327 2 37.826119742998472 81.307619413439696 2 22.565232686384906 69.646356859488634 2 191.23537997526006 78.802873473104441 2 2.5110966150010805 77.051231204661164 2 111.93534092611355 74.100279048460465 2 165.49317542757228 85.425998779185988 2 55.790761711117646 88.294540991675902 2 62.547294658470207 94.89677189179416 2 40.783730447759645 104.85877072749624 2 97.230011559353287 122.94113024047509 2 121.82419764738502 110.63766194963165 2 112.34533904788945 118.40636413459352 2 135.01468676655085 131.94030974234823 2 8.1231946146838503 126.10140601909801 2 48.416124442938937 117.96511418596411 2 111.99650551404973 135.60507511066106 2 87.147412087891524 130.86582345834807 2 156.36531951921702 137.59207619187288 2 111.81677113735722 147.60055211787008 2 84.15752783500416 142.45295054242706 2 75.514649059166786 148.84618021136939 2 66.363540167510791 153.84183866866152 2 70.962420953618775 149.90931822778242 2 108.75233042719979 159.65776567244902 2 138.69418412968707 170.44259888441562 2 123.82035995715896 172.35829803633703 2 7.1639321899577579 173.92158791031352 2 39.044142268447459 178.11759964592716 2 74.908253942713245 182.03438022805591 2 53.879848812795466 186.00772147410095 2 35.722636171741343 185.24548710575087 2 131.02190838222688 197.61556755420216 2 44.624834141696887 10.013562202808673 2 99.961332625685571 3.4008853604421314 2 168.74660670480958 2.384432445797845 2 34.496928371925037 16.3632371406357 2 182.45854994765705 8.6577145864790435 2 170.52929558991508 15.3946466324063 2 177.79654191094934 9.4197668315196879 2 144.74387096170432 15.989546337555018 2 81.9931778931075 29.989592723110636 2 91.984205657151577 29.133044124651576 2 54.644838548753313 39.672133587389872 2 99.64468429266887 43.912413129063431 2 46.299971723198745 54.735150022012306 2 130.30449063120625 56.914248716873338 2 60.981049663681787 69.136230911196506 2 125.93161469131408 69.182416730316362 2 39.536892651248323 71.990918887777127 2 35.800853947765944 66.286053767914638 2 17.781603406396375 83.87429128953606 2 11.200099995374172 81.288193863879343 2 122.00716769552827 86.290252336019037 2 169.85389237808985 86.824460959378371 2 49.075265916439051 91.776990422881383 2 56.480122022226148 100.68976815226276 2 52.303968323609382 107.59154497555859 2 109.33318413727461 105.6687421010942 2 124.31459361022331 124.58634826787397 2 108.07551282346529 129.29747286520265 2 97.103183189541753 127.31535590358219 2 97.157462374092503 131.97883479311682 2 104.55508863161324 140.31591464010026 2 83.486012427477377 149.19657941273692 2 63.536693560255188 140.85538900634808 2 135.44714948781532 153.96350939794627 2 55.547050828374125 142.065620565183 2 188.19689221538471 156.84646075446358 2 77.210420806466686 154.77682935311839 2 179.25073944565438 159.78050850737495 2 76.718223834697 168.46960003589092 2 128.3309905712116 163.06818069256701 2 22.812447387163793 177.18155220101681 2 190.74699714579592 171.48461732535384 2 5.2871236667910315 178.74380728021845 2 35.737689692510166 171.63607434089099 2 65.611492928947115 171.91551786039372 2 59.10507264764324 176.1867389629482 2 33.961767137734249 197.61556755420216 2 27.577770550324065 193.18453890112912 2 133.07817685410666 186.49592793942077 2 14.098216578454485 3.9219267628817591 2 2.384432445797845 2.384432445797845 2 60.517468107366042 4.6451670491408201 2 109.65357742420485 10.895267003188197 2 148.17138403995395 2.384432445797845 2 30.263538140561195 9.7157030288531132 2 190.54268530673528 21.057023206214424 2 166.35208686587956 15.894436022961296 2 86.828595221551737 20.142303796352845 2 149.59377723271078 26.586910317145119 2 91.670234687881788 38.518670859200633 2 95.210290799618093 39.978868042025667 2 45.895735936594278 40.661973429265551 2 110.46380683854962 45.492514058773921 2 57.282488112291162 54.190190492619813 2 2.384432445797845 45.312231756853237 2 36.171779555919429 59.574963782591425 2 142.14008881755143 56.676018364044175 2 68.216543496340762 59.855044508566998 2 138.05472155640865 58.093207347467605 2 50.420434607428348 62.748468295311767 2 52.54978541487182 76.738297929042119 2 15.736113515902014 69.451062231275557 2 188.43299675478394 74.237233542291463 2 6.8745960057258078 72.536109623518442 2 112.08210658379421 78.552738228284596 2 171.89018201673554 79.572813010403067 2 49.310287723540419 87.565978685996242 2 37.047082821461544 96.835658225360433 2 87.48847080302329 103.66940408593834 2 98.88249966960305 111.30850981424263 2 118.59693738346071 114.41795729076394 2 133.81153285423161 135.92939851197443 2 112.64059187984923 129.1800326115054 2 86.8645250923947 126.89187276210934 2 104.66175213098602 144.66079908909029 2 177.95061746238613 135.56133393014173 2 87.777696361992767 138.62116802217184 2 72.479842956828875 138.96471054754997 2 133.21874106066795 146.13476351034709 2 68.15965134442456 162.27106590501981 2 63.883512625289512 147.51587573571913 2 113.23291730334645 154.06559403580189 2 181.49207418015851 150.83723247604178 2 134.34243730485761 173.4105292668842 2 116.18243095528167 172.46493956465787 2 22.414678907856519 166.36873691907203 2 186.64087779827426 165.42486026462643 2 32.460682695342307 176.59587085324637 2 75.442715428459906 177.62468886999378 2 51.157389888050218 176.72365865907503 2 33.341022953509011 190.89215067351833 2 123.21440565212441 196.69960194465409 2 17.561789044643646 6.7788054816975682 2 7.3017608618401662 7.9797625480324861 2 48.517155980721071 13.743492772204537 2 101.84564506916826 7.488456313717057 2 155.70767299848842 10.154444869346788 2 24.873189378723428 11.889952410334415 2 192.53338210234543 6.275360707969595 2 169.45234636022539 26.26541420661772 2 174.15736342424034 24.814620766061804 2 75.803629969374157 24.416405984429861 2 136.06920332708594 15.044739369413561 2 83.890888888059436 24.557268268595784 2 95.566113889526193 31.836134134409509 2 12.852904641373101 32.821274087924792 2 51.652987116956808 31.004518506569664 2 106.9432961677128 50.87645897438783 2 69.118311217044536 48.205974117600967 2 40.706020975998953 52.759647105745053 2 121.48028381199005 64.338067353033125 2 62.73098339048606 63.808124513227511 2 131.91061909658436 66.868275228736991 2 43.771148521524005 72.841055381603397 2 26.971148201590225 70.162814810894716 2 28.211844311141299 74.888853974701505 2 6.9695234395151893 80.883370956524786 2 117.31889447704425 85.465727478428676 2 44.365132847687072 85.403859269555966 2 58.696658122340772 96.885664237238657 2 45.589397894159333 104.27385684593625 2 81.510227031766775 111.39843467515459 2 107.70792281136617 112.84687115986695 2 130.38262899911459 131.90599737718574 2 120.31976180453965 128.33550278933257 2 133.78253418396105 119.05360126979183 2 13.033876935762734 120.43085967780127 2 101.37184540506435 131.53350895655524 2 96.447361308317056 142.3275383658310
[...]
<PointData>
<DataArray Name="Points" NumberOfComponents="3" format="ascii" type="Float32">6.2626414405694 11.524178802309207 3.0 54.638953025169592 11.529631420374878 3.0 98.578410010223422 10.079840454818889 3.0 159.58895640015473 11.093843737515604 3.0 185.95615782592503 3.7940650588428144 3.0 170.51329654979108 20.013480050948385 3.0 181.50642134605829 22.343622796064725 3.0 132.82357534302741 19.700603660334249 3.0 88.294494826533466 26.48565734338278 3.0 98.85227620379321 27.798763353614735 3.0 16.046551013300483 37.634459884930465 3.0 48.149145412949053 36.776523175380468 3.0 63.418329930740967 50.52110768759885 3.0 9.3795199092935722 54.663567626100992 3.0 39.391485873855459 57.574115811994815 3.0 128.88371753593725 61.83278640177128 3.0 67.317936350935568 68.727877994231449 3.0 51.785638580704543 69.838236102356689 3.0 31.448527133919995 72.601906239322687 3.0 24.131341223950201 73.527748975242034 3.0 183.96393508278351 74.216938754608819 3.0 112.0928184024071 87.063664312716242 3.0 40.352398667217145 87.758901934655341 3.0 61.597787891927595 99.444801307595341 3.0 46.677353510894022 98.046195472631283 3.0 84.528696501731304 116.31032832832105 3.0 103.2242425510149 112.39770995237437 3.0 127.74527277884719 125.13123344355499 3.0 112.56970360031609 124.36140023601136 3.0 16.747374263379687 126.72370648639154 3.0 105.93831090561535 132.95408960218793 3.0 100.84607650302445 138.57190697799297 3.0 160.36458066979827 140.55621354026403 3.0 120.09686148297044 138.98411321293062 3.0 76.340635001571485 137.63864106394647 3.0 68.434626122814635 139.23583114997979 3.0 52.718154507769604 148.48060055837757 3.0 125.31158275786517 149.60899282145721 3.0 56.154308189884631 159.29770604708281 3.0 186.25246322036915 146.14480758206145 3.0 75.467751526797969 160.11320317181952 3.0 99.297532529766031 150.82390381784705 3.0 82.969857021719974 164.79932218174517 3.0 132.01837983974829 169.83302200310146 3.0 112.85468838152757 170.24245191018838 3.0 186.5588317614118 173.14456474614539 3.0 18.783784516114721 177.35897885356405 3.0 70.769405251446273 165.83354125572131 3.0 53.380981016621604 170.35309604301403 3.0 40.803734743643986 191.16803930199879 3.0 19.992231063949387 197.61556755420216 3.0 130.97233107234649 191.54018903056115 3.0 22.131673862821394 3.6614032920576345 2 56.835187436292344 3.0916097847028201 2 107.64596702529182 2.384432445797845 2 160.2328636364233 4.8798526395350015 2 37.973332189198459 9.1358981655352469 2 191.46517844764909 12.764543218392166 2 166.13550211004704 11.540509323148951 2 185.50548143091308 14.652566039690591 2 70.312847824264352 24.099527722585517 2 95.879747507223541 16.862881031299295 2 77.89853077064646 35.94625255385602 2 101.26939327088044 35.247609939274703 2 45.475877843110553 33.304795637216344 2 53.443214400258533 44.27438493972889 2 2.384432445797845 56.984922014562642 2 36.18766412000447 54.470150094688435 2 134.56611485808378 54.113730860925692 2 66.521236300102643 55.998961750732484 2 138.4431024401803 67.424476816695076 2 51.178659079673466 58.454630984405327 2 37.826119742998472 81.307619413439696 2 22.565232686384906 69.646356859488634 2 191.23537997526006 78.802873473104441 2 2.5110966150010805 77.051231204661164 2 111.93534092611355 74.100279048460465 2 165.49317542757228 85.425998779185988 2 55.790761711117646 88.294540991675902 2 62.547294658470207 94.89677189179416 2 40.783730447759645 104.85877072749624 2 97.230011559353287 122.94113024047509 2 121.82419764738502 110.63766194963165 2 112.34533904788945 118.40636413459352 2 135.01468676655085 131.94030974234823 2 8.1231946146838503 126.10140601909801 2 48.416124442938937 117.96511418596411 2 111.99650551404973 135.60507511066106 2 87.147412087891524 130.86582345834807 2 156.36531951921702 137.59207619187288 2 111.81677113735722 147.60055211787008 2 84.15752783500416 142.45295054242706 2 75.514649059166786 148.84618021136939 2 66.363540167510791 153.84183866866152 2 70.962420953618775 149.90931822778242 2 108.75233042719979 159.65776567244902 2 138.69418412968707 170.44259888441562 2 123.82035995715896 172.35829803633703 2 7.1639321899577579 173.92158791031352 2 39.044142268447459 178.11759964592716 2 74.908253942713245 182.03438022805591 2 53.879848812795466 186.00772147410095 2 35.722636171741343 185.24548710575087 2 131.02190838222688 197.61556755420216 2 44.624834141696887 10.013562202808673 2 99.961332625685571 3.4008853604421314 2 168.74660670480958 2.384432445797845 2 34.496928371925037 16.3632371406357 2 182.45854994765705 8.6577145864790435 2 170.52929558991508 15.3946466324063 2 177.79654191094934 9.4197668315196879 2 144.74387096170432 15.989546337555018 2 81.9931778931075 29.989592723110636 2 91.984205657151577 29.133044124651576 2 54.644838548753313 39.672133587389872 2 99.64468429266887 43.912413129063431 2 46.299971723198745 54.735150022012306 2 130.30449063120625 56.914248716873338 2 60.981049663681787 69.136230911196506 2 125.93161469131408 69.182416730316362 2 39.536892651248323 71.990918887777127 2 35.800853947765944 66.286053767914638 2 17.781603406396375 83.87429128953606 2 11.200099995374172 81.288193863879343 2 122.00716769552827 86.290252336019037 2 169.85389237808985 86.824460959378371 2 49.075265916439051 91.776990422881383 2 56.480122022226148 100.68976815226276 2 52.303968323609382 107.59154497555859 2 109.33318413727461 105.6687421010942 2 124.31459361022331 124.58634826787397 2 108.07551282346529 129.29747286520265 2 97.103183189541753 127.31535590358219 2 97.157462374092503 131.97883479311682 2 104.55508863161324 140.31591464010026 2 83.486012427477377 149.19657941273692 2 63.536693560255188 140.85538900634808 2 135.44714948781532 153.96350939794627 2 55.547050828374125 142.065620565183 2 188.19689221538471 156.84646075446358 2 77.210420806466686 154.77682935311839 2 179.25073944565438 159.78050850737495 2 76.718223834697 168.46960003589092 2 128.3309905712116 163.06818069256701 2 22.812447387163793 177.18155220101681 2 190.74699714579592 171.48461732535384 2 5.2871236667910315 178.74380728021845 2 35.737689692510166 171.63607434089099 2 65.611492928947115 171.91551786039372 2 59.10507264764324 176.1867389629482 2 33.961767137734249 197.61556755420216 2 27.577770550324065 193.18453890112912 2 133.07817685410666 186.49592793942077 2 14.098216578454485 3.9219267628817591 2 2.384432445797845 2.384432445797845 2 60.517468107366042 4.6451670491408201 2 109.65357742420485 10.895267003188197 2 148.17138403995395 2.384432445797845 2 30.263538140561195 9.7157030288531132 2 190.54268530673528 21.057023206214424 2 166.35208686587956 15.894436022961296 2 86.828595221551737 20.142303796352845 2 149.59377723271078 26.586910317145119 2 91.670234687881788 38.518670859200633 2 95.210290799618093 39.978868042025667 2 45.895735936594278 40.661973429265551 2 110.46380683854962 45.492514058773921 2 57.282488112291162 54.190190492619813 2 2.384432445797845 45.312231756853237 2 36.171779555919429 59.574963782591425 2 142.14008881755143 56.676018364044175 2 68.216543496340762 59.855044508566998 2 138.05472155640865 58.093207347467605 2 50.420434607428348 62.748468295311767 2 52.54978541487182 76.738297929042119 2 15.736113515902014 69.451062231275557 2 188.43299675478394 74.237233542291463 2 6.8745960057258078 72.536109623518442 2 112.08210658379421 78.552738228284596 2 171.89018201673554 79.572813010403067 2 49.310287723540419 87.565978685996242 2 37.047082821461544 96.835658225360433 2 87.48847080302329 103.66940408593834 2 98.88249966960305 111.30850981424263 2 118.59693738346071 114.41795729076394 2 133.81153285423161 135.92939851197443 2 112.64059187984923 129.1800326115054 2 86.8645250923947 126.89187276210934 2 104.66175213098602 144.66079908909029 2 177.95061746238613 135.56133393014173 2 87.777696361992767 138.62116802217184 2 72.479842956828875 138.96471054754997 2 133.21874106066795 146.13476351034709 2 68.15965134442456 162.27106590501981 2 63.883512625289512 147.51587573571913 2 113.23291730334645 154.06559403580189 2 181.49207418015851 150.83723247604178 2 134.34243730485761 173.4105292668842 2 116.18243095528167 172.46493956465787 2 22.414678907856519 166.36873691907203 2 186.64087779827426 165.42486026462643 2 32.460682695342307 176.59587085324637 2 75.442715428459906 177.62468886999378 2 51.157389888050218 176.72365865907503 2 33.341022953509011 190.89215067351833 2 123.21440565212441 196.69960194465409 2 17.561789044643646 6.7788054816975682 2 7.3017608618401662 7.9797625480324861 2 48.517155980721071 13.743492772204537 2 101.84564506916826 7.488456313717057 2 155.70767299848842 10.154444869346788 2 24.873189378723428 11.889952410334415 2 192.53338210234543 6.275360707969595 2 169.45234636022539 26.26541420661772 2 174.15736342424034 24.814620766061804 2 75.803629969374157 24.416405984429861 2 136.06920332708594 15.044739369413561 2 83.890888888059436 24.557268268595784 2 95.566113889526193 31.836134134409509 2 12.852904641373101 32.821274087924792 2 51.652987116956808 31.004518506569664 2 106.9432961677128 50.87645897438783 2 69.118311217044536 48.205974117600967 2 40.706020975998953 52.759647105745053 2 121.48028381199005 64.338067353033125 2 62.73098339048606 63.808124513227511 2 131.91061909658436 66.868275228736991 2 43.771148521524005 72.841055381603397 2 26.971148201590225 70.162814810894716 2 28.211844311141299 74.888853974701505 2 6.9695234395151893 80.883370956524786 2 117.31889447704425 85.465727478428676 2 44.365132847687072 85.403859269555966 2 58.696658122340772 96.885664237238657 2 45.589397894159333 104.27385684593625 2 81.510227031766775 111.39843467515459 2 107.70792281136617 112.84687115986695 2 130.38262899911459 131.90599737718574 2 120.31976180453965 128.33550278933257 2 133.78253418396105 119.05360126979183 2 13.033876935762734 120.43085967780127 2 101.37184540506435 131.53350895655524 2 96.447361308317056 142.32753836583103 2 164.83980665310312 134.18183044443094 2 115.64420915553443 137.90418949215541 2 181.84413965227233 136.93189102693458 2 53.870431471080948 152.2866611967122 2 126.92832108907388 142.6415443200346 2 60.084593545249739 153.68822617482314 2 186.56339884438421 152.02825637028533 2 71.774442627406259 160.20794190592184 2 98.541692656131133 145.93755450140335 2 78.899673605598736 158.12936634197186 2 124.6678425916343 167.9722979295903 2 110.88431001439093 166.67840907197183 2 13.963525989628952 173.95495522715339 2 31.556819818465978 168.40856592722136 2 73.038430727654486 170.73724081865998 2 58.107314862183877 168.64889000317788 2 43.086613242869994 195.89222046233701 2 128.57628151994226 187.62934236867611 2 16.729287945758124 2.384432445797845 2 3.2746801914709573 14.680769306914495 2 51.245937530092306 5.9687979141769913 2 111.11887928676761 3.4430583108880715 2 154.10316507735007 2.384432445797845 2 197.30957411156436 11.075137782636711 2 163.99163908588545 9.122799547590807 2 185.6101101282253 21.878671719331884 2 89.626576188931423 22.246052621917951 2 84.604637339995605 38.675446181099943 2 104.80584028834831 36.101772713389785 2 56.394975539135984 48.983934928753669 2 2.384432445797845 52.381840507166316 2 32.75204824763523 57.174529466922593 2 134.74809329730718 47.636600336168542 2 74.205504611288745 52.013936786544576 2 143.67731960675601 63.670461542936884 2 57.149992609276836 60.659644766399097 2 44.523649601930622 81.044828080585731 2 15.611063652635456 65.220997604810819 2 185.96532562090925 78.520214638276485 2 2.9777646053506466 84.267792678336065 2 112.22557847213214 69.085264864510762 2 163.81297630121495 80.416309394584601 2 51.659151129169089 95.021892950790516 2 34.545274151577892 103.19277997992764 2 102.39895810940394 119.24681076321627 2 127.43880147724018 113.34734061603965 2 107.81211347359638 117.28382181149553 2 132.69050311510523 125.93513879626208 2 6.6236584706919297 119.89839882787282 2 44.213595416036839 119.64803206186106 2 107.56423087211746 136.64442089147684 2 94.400898081545321 129.39522377501427 2 116.23736789501069 146.1080502998646 2 83.386156346363606 137.45589964544899 2 72.683828355624357 145.9246957445782 2 64.591667830704381 157.9166367068845 2 65.528373833118479 143.99337113470315 2 112.7331712371667 158.19642033814958 2 81.264371866846687 168.82445264798159 2 135.8020915722268 162.93658368633211 2 119.85861678769004 168.79599969703244 2 15.837235005681624 169.83873281021226 2 190.3000822681006 159.43433119310171 2 8.921390306424664 168.50847458383973 2 37.027340701152262 181.7177323709908 2 67.357725325613572 180.71301512608611 2 48.803872766541652 182.22211971628667 2 40.502533230102159 183.63749420567069 2 139.10670220452479 193.29960705381424 2 44.128891208788275 2.384432445797845 2 96.467629202787151 3.6754425605894578 2 172.52014174495852 7.0966920429619771 2 186.72527313733244 7.6425864440786944 2 176.3376883842796 18.712924757392983 2 181.72132313475933 16.964741007368097 2 140.17488819523106 21.280306637653979 2 90.37084140199498 32.143321898655614 2 97.690845547822732 23.776257552098716 2 48.468847312403355 43.778620582744189 2 102.67740226617248 39.828073063592434 2 9.6756258359344951 61.266406149011054 2 43.904746043372214 61.131985702006894 2 123.90319950515459 57.969691047169071 2 54.678721621752608 64.852937688345122 2 41.131558487080611 78.115866144217179 2 42.404458693539993 65.019774291874199 2 24.121195934589352 80.319014848125192 2 12.234720388353713 73.128057410053472 2 123.63990359854333 78.014792817378179 2 40.43673298402701 92.394740980068434 2 58.629127496682145 108.21233749808376 2 50.250597491223154 99.514350467531017 2 87.029795622785144 122.92905662484252 2 116.82600586810109 110.68193388380823 2 124.16833860291331 120.32393027673299 2 108.73782035997814 123.08030356368272 2 50.319363737058111 135.14785762550878 2 103.07450534769403 125.29867370381434 2 92.40749751748001 137.84695684223982 2 111.07936254633655 143.51172275948576 2 181.41575206125341 145.27726713489471 2 79.072498489269165 142.56863597159582 2 56.720005224758793 136.75752140804306 2 59.914905378375373 143.56416868206668 2 72.365530310627634 154.60739553397983 2 184.27423267384609 158.65687558823589 2 80.321332343810923 172.70521705322128 2 130.50785968714186 157.86733044810265 2 117.57257779173402 164.39245600050575 2 24.29688017456456 170.25330372777631 2 192.52970277917407 165.50336433964458 2 11.690977739427321 180.03113392164195 2 62.863222971826836 175.02439802002579 2 53.389290418541734 180.80092092789081 2 186.18548570866446 169.98044765418587 2 38.811753310542102 197.61556755420216 2 26.001017771797674 197.61556755420216 2 139.03261557497655 186.01742225441365 2 6.8452928853256969 2.384432445797845 2 2.384432445797845 6.3685082855048449 2 61.823840345836707 9.8448844999872627 2 105.77542648538315 13.172066157305514 2 147.41752349919616 9.4798915893943239 2 30.768846585875171 13.822485973473535 2 197.61556755420216 20.093938794510994 2 163.36796513453848 20.237689246832943 2 75.670186010297414 30.535359928096767 2 79.925307379697173 18.018016299650483 2 147.77114748930549 19.547580912430249 2 85.301255854940834 43.200419466039044 2 44.374592115475458 46.047838359667828 2 105.87685055772853 42.335757807526164 2 53.749171077216346 52.580584217544548 2 9.4836443631791898 49.208132354628361 2 31.127461839673952 64.605447030830533 2 146.5680686683815 56.676282920948452 2 135.28114489164014 64.060451400183339 2 46.242202331955944 65.82976255314523 2 47.914747929223445 75.18519889377356 2 17.593528254914578 77.581199116721066 2 2.384432445797845 68.905498235580325 2 119.2567832207512 77.79202367238571 2 168.20749612149143 73.38469787565279 2 49.891762863320373 83.18725361566247 2 40.251244533430423 100.86997440004438 2 88.912827561518171 109.71797888258462 2 97.176496084671783 115.22498861492782 2 129.09115725658032 119.0663475691149 2 119.36634400632242 121.2496823923092 2 46.370264965328417 123.86304349999584 2 119.31418048450547 132.49074531859176 2 91.150883276679664 121.64881328461712 2 157.61841349270131 130.37212787658021 2 107.49964850212332 152.16501297310111 2 176.49241270114561 139.38384973466825 2 92.068765470745717 141.66048149833225 2 49.116480462689836 141.87866846447045 2 61.433140493376882 164.56952013315083 2 58.067050921226382 150.61222859838023 2 106.06172414716497 156.93193867935989 2 182.06304290352529 155.06372869558282 2 85.128001532285751 160.53206338168184 2 128.24945961599107 172.05271869769564 2 113.85756467365343 176.554295123619 2 18.057821986720494 173.41885200277548 2 181.06021538764341 166.63521486721208 2 30.796435386757857 173.23219983119318 2 69.435619140741309 173.3723065202652 2 46.766230131869513 177.53775152765138 2 31.721061930844595 185.59461305240035 2 125.60461644658919 192.67012104599789 2 10.11969631918709 11.241993679310916 2 54.806675474871838 7.2744406094418155 2 95.485194571498027 8.4135230011975981 2 162.35784197778617 14.157130599504191 2 189.9845891540586 2.384432445797845 2 173.38713569878433 21.403811346226803 2 177.8795115761481 21.916873065387879 2 136.42968936031733 20.748026871957688 2 85.296034773594101 27.876361175374239 2 102.51569277705117 28.365318014633264 2 52.416493063141353 35.471554614753494 2 62.030677613083611 54.425461259546985 2 5.8150679561597132 56.300067385831071 2 43.011581511695432 56.709430304206464 2 127.55028670206174 65.593297355449096 2 64.028276996706765 67.376505686391198 2 51.132867586800359 73.212702801948353 2 35.336652666671675 73.352433923877257 2 20.727642728803183 75.196842029622687 2 180.48086171208115 74.537011177726129 2 111.26095832291269 82.883040814567821 2 36.893841917793715 89.933840284894387 2 62.989713916228311 103.18950174015963 2 47.377150890494946 95.328572682644008 2 88.759998009074252 118.05095385543723 2 104.17562187175572 116.09327216459502 2 126.2642603808799 129.13258656598714 2 114.18629193417713 121.52089312974857 2 109.92386948678217 132.58020874351124 2 103.0937304407347 135.31301726982846 2 160.93686992597961 136.60102999296757 2 122.44995672806152 142.05806393110913 2 79.625123141801481 135.44623017649187 2 65.919172709674839 136.65116024974301 2 52.60970967928565 144.48430809250425 2 124.04928073949823 145.89565535510658 2 59.471951961188743 157.3808309508872 2 184.91953000621334 148.96916294934402 2 74.744460091123642 164.20144577269323 2 103.44879141512276 151.35248407606642 2 81.086897899266049 161.27280420912967 2 132.11737649054504 165.38661146846539 2 115.30741103114835 167.42963985780997 2 189.09582540418216 174.93014609170871 2 15.154620711377088 178.3351277927174 2 69.162402228853239 169.35884962234934 2 57.49070268700423 172.22302601821269 2 39.140793529224759 187.93661642646791 2 20.136930464506278 194.46276748606567 2 135.37558607231563 190.50600818375997 2 25.313163891690657 2.384432445797845 2 53.080493620255901 2.384432445797845 2 105.54196296006118 5.411296912630819 2 161.78010475832178 2.384432445797845 2 38.966482935067397 13.8289069471109 2 192.41897023050126 16.051521373091724 2 169.50684645881168 11.806623611242651 2 186.87337674905078 11.61492391844598 2 67.07680697713667 26.991071503998263 2 92.79469708887278 19.621789718328593 2 81.16205569173303 33.921131379026136 2 100.09583559170395 31.718469194994412 2 41.57282491529849 34.823458213737638 2 57.910129351260693 44.935635557031176 2 2.3844324457978452 61.319576511420628 2 32.848109603046979 51.276451009373389 2 138.97472459627485 54.16261002744892 2 69.938009175460493 52.57469321855784 2 139.9002226665076 64.457181143218605 2 50.307413251869683 55.281585360542195 2 41.14340822707593 83.445888163484184 2 20.098481311841148 66.539829481966677 2 2.6964447461160064 73.22089941628937 2 116.03255025456625 71.442415718374789 2 168.63985774674651 82.431748139571184 2 53.059609271244526 91.072784527096786 2 66.105793578174385 93.03718945287072 2 43.588734615839833 108.1955364773449 2 94.794713407796266 119.30906710044263 2 122.69417881029469 114.67703600175994 2 114.99876032011454 115.67329041848858 2 137.40924092894684 129.29996614336022 2 12.710275525980547 124.85335941276658 2 52.50984081607691 119.79948221006653 2 114.608340