<?xml version="1.0" ?>
<VTKFile byte_order="LittleEndian" type="UnstructuredGrid" version="0.1">
<UnstructuredGrid>
<Piece NumberOfCells="0" NumberOfPoints="69">
<Points>
<DataArray NumberOfComponents="3" format="ascii" type="Float32">19.0 3.0 3.0 11.0 4.0 3.0 53.0 5.0 3.0 101.0 5.0 3.0 160.0 5.0 3.0 27.0 12.0 3.0 188.0 12.0 3.0 170.0 18.0 3.0 181.0 20.0 3.0 71.0 21.0 3.0 95.0 21.0 3.0 140.0 23.0 3.0 89.0 31.0 3.0 98.0 36.0 3.0 21.0 37.0 3.0 49.0 40.0 3.0 102.0 42.0 3.0 60.0 48.0 3.0 9.0 55.0 3.0 40.0 60.0 3.0 133.0 62.0 3.0 67.0 64.0 3.0 95.0 65.0 3.0 137.0 68.0 3.0 45.0 69.0 3.0 40.0 72.0 3.0 20.0 75.0 3.0 184.0 76.0 3.0 6.0 82.0 3.0 116.0 82.0 3.0 176.0 86.0 3.0 47.0 92.0 3.0 62.0 98.0 3.0 45.0 100.0 3.0 83.0 115.0 3.0 106.0 119.0 3.0 127.0 123.0 3.0 110.0 124.0 3.0 137.0 127.0 3.0 12.0 131.0 3.0 41.0 131.0 3.0 108.0 133.0 3.0 97.0 135.0 3.0 159.0 140.0 3.0 111.0 141.0 3.0 183.0 141.0 3.0 79.0 142.0 3.0 68.0 144.0 3.0 37.0 149.0 3.0 52.0 150.0 3.0 132.0 152.0 3.0 63.0 153.0 3.0 189.0 153.0 3.0 69.0 154.0 3.0 105.0 155.0 3.0 180.0 160.0 3.0 82.0 167.0 3.0 131.0 167.0 3.0 118.0 168.0 3.0 21.0 169.0 3.0 191.0 169.0 3.0 13.0 174.0 3.0 35.0 174.0 3.0 71.0 174.0 3.0 55.0 177.0 3.0 187.0 179.0 3.0 36.0 192.0 3.0 24.0 194.0 3.0 131.0 194.0 3.0 </DataArray>
</Points>
<Cells>
<DataArray Name="connectivity" format="ascii" type="Int32">0</DataArray>
<DataArray Name="offsets" format="ascii" type="Int32">0</DataArray>
<DataArray Name="types" format="ascii" type="UInt8">1</DataArray>
</Cells>
<PointData>
<DataArray Name="Points" NumberOfComponents="3" format="ascii" type="Float32">19.0 3.0 3.0 11.0 4.0 3.0 53.0 5.0 3.0 101.0 5.0 3.0 160.0 5.0 3.0 27.0 12.0 3.0 188.0 12.0 3.0 170.0 18.0 3.0 181.0 20.0 3.0 71.0 21.0 3.0 95.0 21.0 3.0 140.0 23.0 3.0 89.0 31.0 3.0 98.0 36.0 3.0 21.0 37.0 3.0 49.0 40.0 3.0 102.0 42.0 3.0 60.0 48.0 3.0 9.0 55.0 3.0 40.0 60.0 3.0 133.0 62.0 3.0 67.0 64.0 3.0 95.0 65.0 3.0 137.0 68.0 3.0 45.0 69.0 3.0 40.0 72.0 3.0 20.0 75.0 3.0 184.0 76.0 3.0 6.0 82.0 3.0 116.0 82.0 3.0 176.0 86.0 3.0 47.0 92.0 3.0 62.0 98.0 3.0 45.0 100.0 3.0 83.0 115.0 3.0 106.0 119.0 3.0 127.0 123.0 3.0 110.0 124.0 3.0 137.0 127.0 3.0 12.0 131.0 3.0 41.0 131.0 3.0 108.0 133.0 3.0 97.0 135.0 3.0 159.0 140.0 3.0 111.0 141.0 3.0 183.0 141.0 3.0 79.0 142.0 3.0 68.0 144.0 3.0 37.0 149.0 3.0 52.0 150.0 3.0 132.0 152.0 3.0 63.0 153.0 3.0 189.0 153.0 3.0 69.0 154.0 3.0 105.0 155.0 3.0 180.0 160.0 3.0 82.0 167.0 3.0 131.0 167.0 3.0 118.0 168.0 3.0 21.0 169.0 3.0 191.0 169.0 3.0 13.0 174.0 3.0 35.0 174.0 3.0 71.0 174.0 3.0 55.0 177.0 3.0 187.0 179.0 3.0 36.0 192.0 3.0 24.0 194.0 3.0 131.0 194.0 3.0 </DataArray>
<DataArray Name="forces" NumberOfComponents="3" format="ascii" type="Float32">0.0 0.0 0.0 0.0 0.0 0.0 0.0 0.0 0.0 0.0 0.0 0.0 0.0 0.0 0.0 0.0 0.0 0.0 0.0 0.0 0.0 0.0 0.0 0.0 0.0 0.0 0.0 0.0 0.0 0.0 0.0 0.0 0.0 0.0 0.0 0.0 0.0 0.0 0.0 0.0 0.0 0.0 0.0 0.0 0.0 0.0 0.0 0.0 0.0 0.0 0.0 0.0 0.0 0.0 0.0 0.0 0.0 0.0 0.0 0.0 0.0 0.0 0.0 0.0 0.0 0.0 0.0 0.0 0.0 0.0 0.0 0.0 0.0 0.0 0.0 0.0 0.0 0.0 0.0 0.0 0.0 0.0 0.0 0.0 0.0 0.0 0.0 0.0 0.0 0.0 0.0 0.0 0.0 0.0 0.0 0.0 0.0 0.0 0.0 0.0 0.0 0.0 0.0 0.0 0.0 0.0 0.0 0.0 0.0 0.0 0.0 0.0 0.0 0.0 0.0 0.0 0.0 0.0 0.0 0.0 0.0 0.0 0.0 0.0 0.0 0.0 0.0 0.0 0.0 0.0 0.0 0.0 0.0 0.0 0.0 0.0 0.0 0.0 0.0 0.0 0.0 0.0 0.0 0.0 0.0 0.0 0.0 0.0 0.0 0.0 0.0 0.0 0.0 0.0 0.0 0.0 0.0 0.0 0.0 0.0 0.0 0.0 0.0 0.0 0.0 0.0 0.0 0.0 0.0 0.0 0.0 0.0 0.0 0.0 0.0 0.0 0.0 0.0 0.0 0.0 0.0 0.0 0.0 0.0 0.0 0.0 0.0 0.0 0.0 0.0 0.0 0.0 0.0 0.0 0.0 0.0 0.0 0.0 0.0 0.0 0.0 0.0 0.0 0.0 0.0 0.0 0.0 </DataArray>
<DataArray Name="radii" format="ascii" type="Float32">2.5 2.5 2.5 2.5 2.5 2.5 2.5 2.5 2.5 2.5 2.5 2.5 2.5 2.5 2.5 2.5 2.5 2.5 2.5 2.5 2.5 2.5 2.5 2.5 2.5 2.5 2.5 2.5 2.5 2.5 2.5 2.5 2.5 2.5 2.5 2.5 2.5 2.5 2.5 2.5 2.5 2.5 2.5 2.5 2.5 2.5 2.5 2.5 2.5 2.5 2.5 2.5 2.5 2.5 2.5 2.5 2.5 2.5 2.5 2.5 2.5 2.5 2.5 2.5 2.5 2.5 2.5 2.5 2.5 </DataArray>
</PointData>
<CellData/>
</Piece>
</UnstructuredGrid>
</VTKFile>
