<?xml version="1.0" ?>
<VTKFile byte_order="LittleEndian" type="UnstructuredGrid" version="0.1">
<UnstructuredGrid>
<Piece NumberOfCells="0" NumberOfPoints="504">
<Points>
<DataArray NumberOfComponents="3" format="ascii" type="Float32">20.02491178991184 8.7605213766095158 3.0 8.5259748541038363 8.8809215094605722 3.0 54.220638385777953 9.7900987834158819 3.0 98.674753543639014 9.6422989554321621 3.0 159.90700867727668 9.7540371678665778 3.0 22.010239274157144 14.743844660344701 3.0 187.62919813278705 6.5117788758366473 3.0 171.6239379598062 20.646166592697206 3.0 179.91982148839324 21.775055899226142 3.0 72.763345319822776 19.567600934547688 3.0 97.395817298661441 19.303549136600797 3.0 136.03940187577328 21.444500497597307 3.0 87.876638168385412 26.678475276499025 3.0 98.026709108561008 31.235575717393331 3.0 15.563007653389382 37.779390781999723 3.0 49.673205177295621 37.247032184941766 3.0 101.47193212557791 48.062839868762218 3.0 62.466710229268159 51.789780373766703 3.0 7.1590386309707075 54.490598010745771 3.0 40.370712950275077 58.699026623829369 3.0 129.66035489713772 63.392490007504378 3.0 65.887999116040746 67.325965848913015 3.0 136.52688252110065 69.043411477984719 3.0 48.12228229321952 71.800655079486987 3.0 34.953641387542525 71.577116255143352 3.0 22.022168543718671 75.164974597569852 3.0 183.21313865983683 76.033614597622133 3.0 7.0479701118068077 84.103562432406633 3.0 113.18415434631437 84.888886500833351 3.0 41.676241394908573 90.327627871608243 3.0 62.317367636838625 100.38402893106688 3.0 46.794458992763204 97.650196254517681 3.0 84.230900246096923 116.72172906040959 3.0 104.64301799020834 116.03950935333107 3.0 127.98009175771267 125.2587799312587 3.0 111.80460576323917 124.2446407549638 3.0 136.57161659270869 122.01655527436475 3.0 14.75909420043982 128.20329526989877 3.0 107.33084536838601 132.28342425356016 3.0 100.66285552882439 138.17433906053566 3.0 160.51803520113023 139.27101356765158 3.0 116.81603832005307 140.07112287155798 3.0 186.01728014977667 136.42411052482362 3.0 76.323884162267419 138.89248412572809 3.0 68.13100560719316 139.44500404811996 3.0 55.012257665521972 148.16578322947734 3.0 126.42001928559966 150.50927997756389 3.0 58.441786857616336 156.20993898489016 3.0 186.51488709658611 148.16287250613229 3.0 74.552778380713093 160.45006179704433 3.0 101.93176354558761 150.97148614244162 3.0 178.35934374249229 163.97640977972648 3.0 80.679323451194634 164.72698982829087 3.0 130.57910209006235 167.37071709186972 3.0 114.12081598827073 169.01707494430676 3.0 25.206380599312816 167.233730240071 3.0 189.74763481345587 173.02663930709127 3.0 16.61224370984494 176.85034974153754 3.0 34.694193494626269 169.43984424861182 3.0 69.800380096363284 166.83468114826968 3.0 55.882439597870899 172.09657198075359 3.0 39.491288993681451 190.29780768640157 3.0 21.566785012421406 195.91121636252225 3.0 130.94111697517445 191.38180725112849 3.0 20.095731439812226 2.8892491188544542 2 3.9471703717194488 13.393494913509523 2 54.812536210090144 2.404196630528539 2 105.23302289408556 3.2745091452538246 2 160.89199808212567 3.4345868269418656 2 35.290859043348853 10.710517990621993 2 190.1678965432651 14.162750077406455 2 167.63527393423976 12.339408315451395 2 185.67676341397001 15.524769894031492 2 69.920913103167038 26.440117704186633 2 93.394004563472762 20.717929691544647 2 142.6745036116107 26.582713738801047 2 82.134426534653741 35.077919225871575 2 100.0381432747356 35.106435428634242 2 21.330686224066767 42.793098570927725 2 44.462086694719758 36.369057719863328 2 107.98612395020103 39.537660951292857 2 54.53319255995023 45.219320364102899 2 3.0404597894672341 57.368676517540791 2 35.369465968436074 54.857636228156125 2 135.82324686823392 56.105039271550901 2 69.238390977835806 55.628799167554192 2 98.373660258504501 67.706863932595255 2 138.76873301092635 65.263970899235176 2 50.566833350378346 60.078027507416827 2 41.276572577635129 80.261710156882174 2 21.288007633890988 69.051539278234387 2 190.85357298425703 77.931052493714319 2 2.8740681090322764 78.177946359365308 2 113.33620634748407 74.878272868860591 2 167.52203707744181 84.475175178131167 2 54.008910561928388 90.506133406843531 2 62.417489151025976 95.762986442172888 2 41.960799713240583 103.46705034031265 2 82.105663509620413 108.04700413023538 2 99.224927724696926 122.16896802505704 2 121.57507086920566 115.7255790744849 2 112.781031238387 119.09110396520451 2 135.13703630703969 130.13987237157551 2 8.0951636081162324 125.8411383565448 2 47.40046474722886 119.67640529011811 2 111.2660676050296 133.72852320612913 2 90.548364225358284 132.94675596609622 2 155.08143428251304 136.58636435710153 2 112.12114005690412 147.91147168095694 2 178.50105566205607 144.59343670867801 2 84.839955117720649 141.39241881001834 2 75.210665844934539 148.3549098991549 2 138.44499705728182 155.83057496200593 2 65.785811087383749 153.4629508596621 2 68.523179404597073 149.87273170491113 2 108.05851195486598 159.94409329372431 2 87.309479664813807 168.33953459684079 2 135.68570655028549 169.53300488922534 2 123.34105096653157 172.30892732374565 2 17.64774406960472 163.85713230065281 2 193.77781852230365 161.84729491278463 2 7.987521094633256 173.27244468776124 2 38.018875099297126 177.9114618459237 2 73.513751410373274 180.87086449689568 2 52.504869853821077 184.59650834605171 2 35.791557836518265 186.74671513977552 2 132.01400374129361 197.59580336947147 2 47.383253647516767 7.0388437177883008 2 100.69969423769946 3.0782945301652651 2 165.33203523079169 4.4753912079130878 2 32.939072691389491 17.891884878682095 2 182.40520950809338 11.393322207951963 2 172.71574929096644 14.646406507387143 2 178.53556779712977 13.903702576777757 2 68.397843582630742 19.306303927247793 2 92.981613339544865 14.67674720803767 2 142.87524657719501 17.756297821326587 2 87.624645662914006 30.498755805518201 2 93.17640687334972 28.90606041954327 2 20.757186038994025 36.995349430162058 2 53.387833162190901 40.656064090250503 2 99.770483810306686 43.978302304407663 2 62.083582731212779 42.564449792622547 2 15.028839854035091 57.243369763178841 2 46.690445834140192 56.571264211007559 2 131.33035661356129 57.432348671990859 2 61.132333717138891 68.011606022951796 2 127.48604212168047 68.515398430904725 2 39.103948716299854 71.969748761709852 2 37.719868546487099 67.450428973893025 2 16.964188105340671 80.701141732016836 2 12.183536066915488 80.667640154431965 2 122.34907849526365 85.018009453193557 2 171.47416754548019 87.136570267410562 2 48.360407094526884 93.252997547981295 2 54.608980686595523 100.94571146505447 2 50.109748294475715 105.25236914186529 2 82.970578951868944 120.99908441371289 2 110.11311446794399 111.15362862953725 2 123.45769837443916 124.24516714193277 2 106.26145180089361 128.14947409585068 2 138.40306901344303 125.6243810968073 2 48.559425939080711 129.64059439796506 2 99.200579294969387 128.85760505875001 2 98.771914465421247 133.60565344742264 2 162.27478621402452 143.44239553650738 2 105.60316114204286 140.87390703857542 2 185.89703086868147 143.6043607120144 2 80.270840166728249 147.17065830371789 2 64.600775854868161 141.99919577264262 2 37.666747773026032 146.19645997459372 2 133.91448501058071 154.29571331944948 2 55.895699689813036 142.91409185682841 2 188.11004591053219 156.01171465937915 2 74.414800157284276 153.32705056590248 2 103.69403214989318 158.75063241635016 2 181.27534990829881 160.40614640525575 2 77.89025346857494 168.16928909882509 2 130.23771240721865 162.79142193919475 2 117.11527427286302 160.71532211750761 2 23.357659174383784 174.59558518679299 2 191.35768905126869 169.01101549017434 2 8.1070589513687388 179.22136614663546 2 37.074672981996066 173.31514544437974 2 66.11316112791215 171.29607227471197 2 56.945293038499372 176.55351709511982 2 184.48849589684451 174.01904233776077 2 32.249888844243905 194.66509111762932 2 28.438044196503025 195.73917627824724 2 134.10444768341364 188.23473255132453 2 12.297790970428862 2.404196630528539 2 3.0683350704646339 2.404196630528539 2 58.60923422564656 5.3530579886722363 2 108.48300801064788 9.9716854819030196 2 151.93631611238749 2.404196630528539 2 28.475491824495798 9.1138606672263318 2 191.5482276733143 18.577061457281065 2 168.54131946820442 16.863425613934947 2 183.41244715598927 24.653164093786689 2 72.316019712932302 31.331027075522478 2 85.728226686489378 19.547654015862719 2 147.41847823611963 25.927954877127942 2 91.379456456513239 37.850231392652233 2 96.008462194386283 37.759014696634004 2 26.330929564005753 39.813762167736741 2 45.824070290782416 40.742806749324501 2 107.84012047969746 44.36699658610177 2 58.144186537792464 53.023023434496821 2 2.404196630528539 47.923025805296383 2 36.433257295107751 61.083831934991551 2 140.31138382546416 57.573390193451132 2 67.860281416944289 61.238863059028198 2 102.40591669854965 63.213859138806576 2 136.90639441633127 60.596421984532888 2 47.932488069336692 63.709457803951182 2 50.633289397950378 75.591613588580088 2 16.311879031347562 71.600239639647654 2 187.80114561022506 74.50829798217859 2 5.6707620668959988 74.350836420046491 2 115.01070294633378 79.098569605248755 2 173.05888936595582 80.595371523328438 2 49.118422412045099 88.701631299890096 2 66.681654270689819 100.40165123658146 2 37.998047457136295 96.800345426114745 2 86.343852001489196 106.0285741488248 2 98.849874144430899 113.03990029951399 2 130.83122632901168 116.47559448744273 2 117.31350826355902 117.81178300117303 2 133.45376877406332 134.30453368093376 2 9.9520238940268992 131.09607667825762 2 42.374414300043043 126.75770370848599 2 114.19971611910168 130.67856473412647 2 89.718844272054667 127.6545414513906 2 152.4935501984956 131.91119419663241 2 106.08611462590785 145.57125211923776 2 178.61451101264896 135.39145364287893 2 87.784197820953239 137.455874752006 2 73.156738322619873 142.14148103924927 2 50.60072041924068 148.2134999655724 2 132.68233725222768 147.34180817031427 2 68.072744902608648 162.29903909532152 2 62.993770366616936 148.86388415854498 2 110.
[...]
<PointData>
<DataArray Name="Points" NumberOfComponents="3" format="ascii" type="Float32">20.02491178991184 8.7605213766095158 3.0 8.5259748541038363 8.8809215094605722 3.0 54.220638385777953 9.7900987834158819 3.0 98.674753543639014 9.6422989554321621 3.0 159.90700867727668 9.7540371678665778 3.0 22.010239274157144 14.743844660344701 3.0 187.62919813278705 6.5117788758366473 3.0 171.6239379598062 20.646166592697206 3.0 179.91982148839324 21.775055899226142 3.0 72.763345319822776 19.567600934547688 3.0 97.395817298661441 19.303549136600797 3.0 136.03940187577328 21.444500497597307 3.0 87.876638168385412 26.678475276499025 3.0 98.026709108561008 31.235575717393331 3.0 15.563007653389382 37.779390781999723 3.0 49.673205177295621 37.247032184941766 3.0 101.47193212557791 48.062839868762218 3.0 62.466710229268159 51.789780373766703 3.0 7.1590386309707075 54.490598010745771 3.0 40.370712950275077 58.699026623829369 3.0 129.66035489713772 63.392490007504378 3.0 65.887999116040746 67.325965848913015 3.0 136.52688252110065 69.043411477984719 3.0 48.12228229321952 71.800655079486987 3.0 34.953641387542525 71.577116255143352 3.0 22.022168543718671 75.164974597569852 3.0 183.21313865983683 76.033614597622133 3.0 7.0479701118068077 84.103562432406633 3.0 113.18415434631437 84.888886500833351 3.0 41.676241394908573 90.327627871608243 3.0 62.317367636838625 100.38402893106688 3.0 46.794458992763204 97.650196254517681 3.0 84.230900246096923 116.72172906040959 3.0 104.64301799020834 116.03950935333107 3.0 127.98009175771267 125.2587799312587 3.0 111.80460576323917 124.2446407549638 3.0 136.57161659270869 122.01655527436475 3.0 14.75909420043982 128.20329526989877 3.0 107.33084536838601 132.28342425356016 3.0 100.66285552882439 138.17433906053566 3.0 160.51803520113023 139.27101356765158 3.0 116.81603832005307 140.07112287155798 3.0 186.01728014977667 136.42411052482362 3.0 76.323884162267419 138.89248412572809 3.0 68.13100560719316 139.44500404811996 3.0 55.012257665521972 148.16578322947734 3.0 126.42001928559966 150.50927997756389 3.0 58.441786857616336 156.20993898489016 3.0 186.51488709658611 148.16287250613229 3.0 74.552778380713093 160.45006179704433 3.0 101.93176354558761 150.97148614244162 3.0 178.35934374249229 163.97640977972648 3.0 80.679323451194634 164.72698982829087 3.0 130.57910209006235 167.37071709186972 3.0 114.12081598827073 169.01707494430676 3.0 25.206380599312816 167.233730240071 3.0 189.74763481345587 173.02663930709127 3.0 16.61224370984494 176.85034974153754 3.0 34.694193494626269 169.43984424861182 3.0 69.800380096363284 166.83468114826968 3.0 55.882439597870899 172.09657198075359 3.0 39.491288993681451 190.29780768640157 3.0 21.566785012421406 195.91121636252225 3.0 130.94111697517445 191.38180725112849 3.0 20.095731439812226 2.8892491188544542 2 3.9471703717194488 13.393494913509523 2 54.812536210090144 2.404196630528539 2 105.23302289408556 3.2745091452538246 2 160.89199808212567 3.4345868269418656 2 35.290859043348853 10.710517990621993 2 190.1678965432651 14.162750077406455 2 167.63527393423976 12.339408315451395 2 185.67676341397001 15.524769894031492 2 69.920913103167038 26.440117704186633 2 93.394004563472762 20.717929691544647 2 142.6745036116107 26.582713738801047 2 82.134426534653741 35.077919225871575 2 100.0381432747356 35.106435428634242 2 21.330686224066767 42.793098570927725 2 44.462086694719758 36.369057719863328 2 107.98612395020103 39.537660951292857 2 54.53319255995023 45.219320364102899 2 3.0404597894672341 57.368676517540791 2 35.369465968436074 54.857636228156125 2 135.82324686823392 56.105039271550901 2 69.238390977835806 55.628799167554192 2 98.373660258504501 67.706863932595255 2 138.76873301092635 65.263970899235176 2 50.566833350378346 60.078027507416827 2 41.276572577635129 80.261710156882174 2 21.288007633890988 69.051539278234387 2 190.85357298425703 77.931052493714319 2 2.8740681090322764 78.177946359365308 2 113.33620634748407 74.878272868860591 2 167.52203707744181 84.475175178131167 2 54.008910561928388 90.506133406843531 2 62.417489151025976 95.762986442172888 2 41.960799713240583 103.46705034031265 2 82.105663509620413 108.04700413023538 2 99.224927724696926 122.16896802505704 2 121.57507086920566 115.7255790744849 2 112.781031238387 119.09110396520451 2 135.13703630703969 130.13987237157551 2 8.0951636081162324 125.8411383565448 2 47.40046474722886 119.67640529011811 2 111.2660676050296 133.72852320612913 2 90.548364225358284 132.94675596609622 2 155.08143428251304 136.58636435710153 2 112.12114005690412 147.91147168095694 2 178.50105566205607 144.59343670867801 2 84.839955117720649 141.39241881001834 2 75.210665844934539 148.3549098991549 2 138.44499705728182 155.83057496200593 2 65.785811087383749 153.4629508596621 2 68.523179404597073 149.87273170491113 2 108.05851195486598 159.94409329372431 2 87.309479664813807 168.33953459684079 2 135.68570655028549 169.53300488922534 2 123.34105096653157 172.30892732374565 2 17.64774406960472 163.85713230065281 2 193.77781852230365 161.84729491278463 2 7.987521094633256 173.27244468776124 2 38.018875099297126 177.9114618459237 2 73.513751410373274 180.87086449689568 2 52.504869853821077 184.59650834605171 2 35.791557836518265 186.74671513977552 2 132.01400374129361 197.59580336947147 2 47.383253647516767 7.0388437177883008 2 100.69969423769946 3.0782945301652651 2 165.33203523079169 4.4753912079130878 2 32.939072691389491 17.891884878682095 2 182.40520950809338 11.393322207951963 2 172.71574929096644 14.646406507387143 2 178.53556779712977 13.903702576777757 2 68.397843582630742 19.306303927247793 2 92.981613339544865 14.67674720803767 2 142.87524657719501 17.756297821326587 2 87.624645662914006 30.498755805518201 2 93.17640687334972 28.90606041954327 2 20.757186038994025 36.995349430162058 2 53.387833162190901 40.656064090250503 2 99.770483810306686 43.978302304407663 2 62.083582731212779 42.564449792622547 2 15.028839854035091 57.243369763178841 2 46.690445834140192 56.571264211007559 2 131.33035661356129 57.432348671990859 2 61.132333717138891 68.011606022951796 2 127.48604212168047 68.515398430904725 2 39.103948716299854 71.969748761709852 2 37.719868546487099 67.450428973893025 2 16.964188105340671 80.701141732016836 2 12.183536066915488 80.667640154431965 2 122.34907849526365 85.018009453193557 2 171.47416754548019 87.136570267410562 2 48.360407094526884 93.252997547981295 2 54.608980686595523 100.94571146505447 2 50.109748294475715 105.25236914186529 2 82.970578951868944 120.99908441371289 2 110.11311446794399 111.15362862953725 2 123.45769837443916 124.24516714193277 2 106.26145180089361 128.14947409585068 2 138.40306901344303 125.6243810968073 2 48.559425939080711 129.64059439796506 2 99.200579294969387 128.85760505875001 2 98.771914465421247 133.60565344742264 2 162.27478621402452 143.44239553650738 2 105.60316114204286 140.87390703857542 2 185.89703086868147 143.6043607120144 2 80.270840166728249 147.17065830371789 2 64.600775854868161 141.99919577264262 2 37.666747773026032 146.19645997459372 2 133.91448501058071 154.29571331944948 2 55.895699689813036 142.91409185682841 2 188.11004591053219 156.01171465937915 2 74.414800157284276 153.32705056590248 2 103.69403214989318 158.75063241635016 2 181.27534990829881 160.40614640525575 2 77.89025346857494 168.16928909882509 2 130.23771240721865 162.79142193919475 2 117.11527427286302 160.71532211750761 2 23.357659174383784 174.59558518679299 2 191.35768905126869 169.01101549017434 2 8.1070589513687388 179.22136614663546 2 37.074672981996066 173.31514544437974 2 66.11316112791215 171.29607227471197 2 56.945293038499372 176.55351709511982 2 184.48849589684451 174.01904233776077 2 32.249888844243905 194.66509111762932 2 28.438044196503025 195.73917627824724 2 134.10444768341364 188.23473255132453 2 12.297790970428862 2.404196630528539 2 3.0683350704646339 2.404196630528539 2 58.60923422564656 5.3530579886722363 2 108.48300801064788 9.9716854819030196 2 151.93631611238749 2.404196630528539 2 28.475491824495798 9.1138606672263318 2 191.5482276733143 18.577061457281065 2 168.54131946820442 16.863425613934947 2 183.41244715598927 24.653164093786689 2 72.316019712932302 31.331027075522478 2 85.728226686489378 19.547654015862719 2 147.41847823611963 25.927954877127942 2 91.379456456513239 37.850231392652233 2 96.008462194386283 37.759014696634004 2 26.330929564005753 39.813762167736741 2 45.824070290782416 40.742806749324501 2 107.84012047969746 44.36699658610177 2 58.144186537792464 53.023023434496821 2 2.404196630528539 47.923025805296383 2 36.433257295107751 61.083831934991551 2 140.31138382546416 57.573390193451132 2 67.860281416944289 61.238863059028198 2 102.40591669854965 63.213859138806576 2 136.90639441633127 60.596421984532888 2 47.932488069336692 63.709457803951182 2 50.633289397950378 75.591613588580088 2 16.311879031347562 71.600239639647654 2 187.80114561022506 74.50829798217859 2 5.6707620668959988 74.350836420046491 2 115.01070294633378 79.098569605248755 2 173.05888936595582 80.595371523328438 2 49.118422412045099 88.701631299890096 2 66.681654270689819 100.40165123658146 2 37.998047457136295 96.800345426114745 2 86.343852001489196 106.0285741488248 2 98.849874144430899 113.03990029951399 2 130.83122632901168 116.47559448744273 2 117.31350826355902 117.81178300117303 2 133.45376877406332 134.30453368093376 2 9.9520238940268992 131.09607667825762 2 42.374414300043043 126.75770370848599 2 114.19971611910168 130.67856473412647 2 89.718844272054667 127.6545414513906 2 152.4935501984956 131.91119419663241 2 106.08611462590785 145.57125211923776 2 178.61451101264896 135.39145364287893 2 87.784197820953239 137.455874752006 2 73.156738322619873 142.14148103924927 2 50.60072041924068 148.2134999655724 2 132.68233725222768 147.34180817031427 2 68.072744902608648 162.29903909532152 2 62.993770366616936 148.86388415854498 2 110.53060797448472 152.30853268590823 2 180.95043181964186 152.46156610241829 2 88.633669732246616 163.37023916009511 2 132.79728571532337 173.41607875307133 2 118.02533228015797 172.56705052960061 2 19.427993277176363 168.96365605418629 2 186.74991848550769 165.23718962069617 2 11.093348120952619 165.5908177445173 2 33.553463797874393 176.60917407649896 2 74.120022849789692 176.23350783641058 2 50.711501673386081 177.05474426770766 2 33.118618894588153 190.38593741960821 2 124.55455731200723 197.59580336947147 2 15.333742111619349 8.1895862019056658 2 6.0735810408754327 5.956523031643929 2 49.772094714880353 11.139709413744287 2 102.72978643023497 7.3519328600926031 2 156.39169232517457 7.0002157693558322 2 25.68942893132116 12.556360764245596 2 192.23610745673363 7.44686781160972 2 168.62428759128534 24.18702293370988 2 175.60517715108028 22.758307654925314 2 76.059680708368219 22.648032879876848 2 100.03530361579742 15.668326085816801 2 138.17807054114945 17.461991949211221 2 84.437082019112992 24.742792913026634 2 94.207578327604537 33.537924843775862 2 13.658536617582755 33.490968387495599 2 50.507682842043785 32.62218575385257 2 105.81001904062255 49.461311151539611 2 66.383396436204066 49.570871438684698 2 11.530968431021812 54.117556011626633 2 40.11467139704699 54.076849146959646 2 125.15283818384371 63.850931443919471 2 63.573390675983937 63.312427976167776 2 132.13510948275476 67.795222566252463 2 43.513194170295904 71.166215694415101 2 30.805706279918191 70.132464878968179 2 26.561945041684858 76.014931390427364 2 180.82566546068315 72.410104824897033 2 7.5476285519733892 79.445858956777656 2 117.71233239506303 84.079413126311948 2 44.613667150322989 86.732946875760632 2 58.36332515384796 98.5739229257305 2 46.366334948597625 102.33008224401574 2 82.531951243500117 112.63853659825268 2 109.32779873643172 115.59840361192029 2 130.27334501888856 129.19786643688499 2 115.75084789320562 126.62866634993475 2 132.90011277297003 120.50255646956354 2 12.44743107268666 124.27429017239174 2 102.9861139295446 131.6977094449737 2 97.610014928938512 141.74725408272838 2 162.56146067791431 135.10672163643233 2 112.82799882695565 137.92004155265514 2 183.41340833561918 139.80920014908136 2 78.36107703246428 134.8198124060751 2 64.00756609679479 137.11277638276133 2 53.701863118996293 152.68818211815159 2 128.55104724320364 146.77074902421961 2 61.779539293366348 153.41484869299728 2 185.60683842407957 152.2633705167666 2 70.53910635559393 158.39799912321806 2 101.58812173598528 146.65714061604544 2 176.87103602853296 159.75270894182722 2 79.676976728199833 160.20286812832751 2 126.013550628876 168.31917213682377 2 111.41158877529941 165.18235059954978 2 21.712178532754447 164.90511974233826 2 193.78547446989018 173.95359075598302 2 12.975307237485499 173.98756032311897 2 30.214012953778408 168.6407729429713 2 72.537383977854191 170.53409901325463 2 60.143957693080687 170.1728003720018 2 40.049396215384682 194.88190179605323 2 20.172818847641729 191.61479100177596 2 128.03190851548715 187.72827387476144 2 16.12860473985404 2.404196630528539 2 2.404196630528539 9.5939915969724421 2 51.855576741742595 5.8811603762220406 2 109.67166523816583 4.6262029316618012 2 156.51625599249198 2.404196630528539 2 34.331141664908344 6.2942208377218281 2 194.69487882815378 13.202539808340132 2 164.27321614093779 9.1965151647328032 2 184.95942440157935 20.100707512970704 2 67.02759944133021 23.204221561459939 2 91.066679934262979 24.329892460495806 2 137.91831462948068 27.518805753745866 2 86.470335230966228 36.992112577747911 2 104.51563894096078 36.259121969031405 2 39.927466732862356 36.199029979041534 2 109.47147400311302 35.407129154625615 2 57.865428618579699 48.377252684391287 2 3.0404399520885095 52.600376476521866 2 32.277773098628266 58.536472631604916 2 135.88113008845983 51.460683677799167 2 73.853717149858696 55.573880058958999 2 143.02192095163639 63.783203866398537 2 55.048640674616422 61.361231367106129 2 45.989938010660829 80.492274437140921 2 16.887233747879066 67.100603178750987 2 186.45749530376523 79.961475628857116 2 2.404196630528539 82.902635191992516 2 112.71747903566956 70.275436165357064 2 165.88997422068925 79.988927555904468 2 52.687700881905776 95.08431589265733 2 62.50169454332412 91.103607920893424 2 37.432345973598366 104.48784177154273 2 77.797509251240598 112.40188232327442 2 103.70275157134324 120.64404831079676 2 126.31879200293797 115.28472320860305 2 108.21578840206037 119.76251599209252 2 133.64890234955408 125.75531384038818 2 7.8238854306314582 121.47151415315402 2 43.442084080210421 122.14517883867107 2 108.0615444627922 136.96102102822121 2 94.851493304340067 130.82604051737982 2 155.7866105387684 141.34005003322216 2 114.31174345968745 143.8068243821586 2 175.16152709336987 141.75092126998851 2 80.868027742015357 138.85364533362954 2 71.097041462528111 146.14333087507828 2 139.36480480573388 151.35088894251862 2 65.740992098367002 158.13189038489566 2 66.504454577070163 145.91400754066458 2 112.55776272091386 160.53657446381337 2 82.61108756451921 169.00931305892217 2 134.56653104468643 164.87021972392941 2 120.53505674579668 168.49519177221151 2 15.110877716690199 167.6254314495431 2 189.48221047453939 160.7709303232543 2 11.054218067503067 169.89963059858522 2 36.249522491279372 182.18583464857267 2 69.080311070153599 179.0648128373837 2 47.897474452063008 183.31226515650664 2 40.258329560287891 185.11430369543837 2 136.43331235494861 195.80159768814562 2 44.252124107652207 3.5412549584204496 2 96.313086394892466 2.404196630528539 2 168.74774855115308 7.703796921692434 2 28.599246395058167 16.114624828845113 2 186.95254278993818 10.966064233462536 2 176.14246818448385 17.975027207189598 2 181.34449750131699 17.495594817270028 2 64.776896838128465 16.600824156664675 2 89.837306520931605 17.955209921817389 2 140.62430939603587 22.30216166617215 2 89.817674533771395 33.842155121569959 2 95.746574746323162 24.888280139839701 2 49.611237834213476 43.294260136612515 2 100.12726513345646 39.531783703301215 2 62.328780799903861 47.147544858496936 2 11.459145607702322 60.452318298273404 2 44.404380543983947 60.755423008435812 2 126.77126606762459 58.699642088267915 2 57.107489937774524 65.554921089794391 2 130.56641727440982 72.14001795292063 2 41.533724088220218 75.66049976667361 2 42.19854661687593 66.159379971575021 2 21.760926048176909 80.745106885838766 2 12.765358740636657 75.896606067911904 2 123.46474790186524 80.32857272969936 2 175.34574863148296 84.401983942599273 2 43.800368363595219 94.2879952456491 2 57.21313960308639 104.7812001840142 2 50.370313567688036 100.18042967597465 2 87.270191963411605 122.86541368192562 2 113.93995509325948 114.42962657361991 2 124.19111500776989 119.58071334176496 2 107.18924748421877 123.91410749774901 2 139.6103326506514 129.7838530305489 2 48.062176968050068 134.32524414364767 2 102.50199055412986 125.47661768878672 2 94.790354739848084 136.06645020645294 2 161.06223974795549 147.90436755200221 2 109.83040481737947 142.98033373387983 2 182.46909512154667 146.66091015680502 2 78.061769409139487 143.04542679807909 2 60.224379083965026 141.53603784556208 2 129.15380449690704 154.11794850207525 2 59.219690727007723 146.17106134921988 2 192.5475174228084 157.36710669428155 2 70.008510678527969 154.06978213978235 2 101.44579276531624 155.00157935337478 2 185.5244491177462 159.95296065304231 2 76.840493285160804 172.56567139637392 2 131.29074991116451 158.26900881500617 2 117.00436446046859 165.38609518186021 2 26.391531402351827 171.31064972101476 2 191.2291246802786 164.92729312202366 2 12.694615726121862 178.74766041965657 2 41.739032255088368 174.30146328163312 2 65.338101283907406 176.05828736454339 2 54.229503252793151 180.28546230382011 2 186.5797180217435 169.89226622036102 2 35.936855265393859 196.75957003070161 2 25.011618119928777 197.59580336947147 2 138.19031453231014 185.94139859810909 2 8.4819427291993339 2.8655900306098898 2 2.404196630528539 5.823628928744629 2 58.812390077549495 10.165354849041748 2 104.0737303585243 11.896514023400883 2 150.72778290679119 6.887759067402067 2 31.285668394516918 12.745211074307115 2 195.08979733175892 21.690590714229952 2 165.60274005998042 20.475282992901086 2 187.97209877166139 23.188607524830601 2 74.438909949522113 27.042451607764054 2 81.667772996780172 21.623879877785093 2 145.54797370214305 21.603482708365181 2 88.374017391093147 41.422527580050776 2 93.565881695987997 41.898069483668607 2 43.45961589875526 44.830420473215618 2 104.00564703440332 41.703708609237829 2 53.823892794325026 54.741284906535412 2 6.9129165127169419 49.690008401148667 2 33.691372402456807 64.973733990847492 2 144.50958075765581 59.558377431894804 2 72.468127863742183 61.947506767749772 2 134.10084659425345 63.834096748052438 2 46.539350902276475 67.766793604283222 2 46.013139559876258 75.861042603541492 2 17.530739592371038 76.054697932196376 2 184.80999976146379 71.245719812465424 2 3.4336589126981902 70.131718238284748 2 119.33028381638803 79.606901961982942 2 169.84382308842615 77.2986689845401 2 48.715630767291294 84.150451550406174 2 70.571418902157049 97.952512363500176 2 42.313695367279827 98.754595232013884 2 87.668668386603528 110.65415067683746 2 100.15186398945515 117.54240738858155 2 128.54258055843067 120.76808401200286 2 117.50784296489802 122.47714970570725 2 133.64881947117337 138.79746479544986 2 5.6030349913294959 129.33439449632391 2 46.937899412866706 125.26315506250812 2 117.98100702953062 133.45954967989437 2 91.981170986262882 123.3901453094241 2 157.20107660503891 131.68583489124688 2 106.35658146894303 150.19627365623791 2 179.13668246468714 139.98014517773842 2 91.584682874815357 140.39715243612753 2 72.152728036497138 137.51310127942412 2 51.346422498034833 143.48215326690516 2 136.37486169860637 148.56302039711326 2 63.323557028235982 162.63082085172417 2 58.441160648903953 150.785619338967 2 106.88534905414348 155.2722989823973 2 183.25022907138205 156.16318011960735 2 84.180200065184394 161.81331048038231 2 128.08040880795932 172.70690398504851 2 113.51994971837085 174.16436866278124 2 18.987306315079991 173.35821904999563 2 182.278994840971