<?xml version="1.0" ?>
<VTKFile byte_order="LittleEndian" type="UnstructuredGrid" version="0.1">
<UnstructuredGrid>
<Piece NumberOfCells="0" NumberOfPoints="705">
<Points>
<DataArray NumberOfComponents="3" format="ascii" type="Float32">7.277716443502781 13.416842415647091 3.0 55.248484411813898 12.021184754116661 3.0 98.448445705449103 11.539634438561059 3.0 159.55255758160041 11.351445754792064 3.0 183.43422631648383 2.7844324457978455 3.0 169.50574533887809 19.351560711306362 3.0 182.25337458009872 22.078785211824485 3.0 87.586951958904521 25.956145191257654 3.0 99.545056007434667 27.343046742461258 3.0 47.602307230598832 34.824161971019201 3.0 63.501186184990935 47.633325611118657 3.0 11.006510374139996 53.12238403137696 3.0 38.598255964243826 56.75156923450772 3.0 127.24567099869714 59.319903084091493 3.0 54.968964931545806 69.566698344423941 3.0 29.798416036813187 71.886861624729562 3.0 25.280746211623427 72.739222522676187 3.0 183.37165955047627 74.279620958387525 3.0 111.61109801465423 88.711360270422404 3.0 39.643832047772591 88.008009353467344 3.0 62.573694798792246 100.4628360902708 3.0 46.307954853320375 100.08574980844543 3.0 82.718533286219184 113.75072925063631 3.0 102.68287211579153 106.28459904143595 3.0 129.46315299660063 126.29992377400303 3.0 113.66968750617868 124.20339730252181 3.0 105.79913808493131 133.09466745652773 3.0 99.72619346437925 139.47556429069718 3.0 122.22895789049782 138.00401385726096 3.0 75.90293269277791 135.30961459447084 3.0 67.61975270719546 137.11654043084272 3.0 52.607236617386796 148.37948765641244 3.0 124.37081738417508 150.2340191333075 3.0 184.64263314734322 145.5489851270512 3.0 77.624154218550331 160.4911301461037 3.0 97.929950518949909 151.77448270043581 3.0 85.731568052670752 165.08608603074939 3.0 132.68246283100103 170.48361676805305 3.0 112.046394357373 171.45731151591417 3.0 187.58531896935651 173.67931450632457 3.0 71.151317761270093 165.83178594113838 3.0 52.511776565631287 170.56082150292605 3.0 42.819530288019379 192.85552865936683 3.0 20.027980928174557 197.21556755420215 3.0 130.94239507586326 191.42538396655337 3.0 23.622246724174733 3.5591086602947919 2 58.002321995128035 2.7844324457978455 2 108.33195508090824 2.7844324457978455 2 157.8054761389904 7.0801222709021525 2 37.330664986674407 7.605229065604254 2 190.86921489626437 12.789036614557892 2 164.04090453986618 13.075872152858636 2 186.27270083597656 14.451780484023129 2 69.614364177326379 22.214856926463455 2 96.423412907370377 16.032789746301962 2 102.65040462709298 35.753467498103589 2 43.746480842040967 31.245869800055793 2 54.60037172778221 42.526396182814295 2 2.7844324457978455 56.616937588818338 2 35.355536451176739 51.928909414073317 2 134.27465533342544 52.010741177373241 2 67.416353156497877 55.285174922132313 2 137.44458107071031 66.955376693728567 2 52.66727598338683 56.866991808670043 2 34.595143856842306 81.276233023840234 2 21.090220841960072 69.87435222456277 2 2.7844324457978455 76.977937440751901 2 163.41552669060277 85.831417435748548 2 58.33774809607646 85.091432619761761 2 39.901087580205392 106.38611154978182 2 95.017647449606983 120.24996778430346 2 122.47420994475465 105.87365935901181 2 112.40197230187107 115.78168195670402 2 49.222495141691319 116.95371661587879 2 112.57268237961418 136.19519022713678 2 85.396977250380303 127.95630900488861 2 112.82896960318028 149.193941939387 2 84.167013896965855 141.34044723014381 2 76.817652270119751 149.07381140387142 2 66.208231568729602 153.83596101295527 2 71.791534470925626 148.99305663994789 2 109.00773987998326 161.05149468354045 2 123.54244593104519 172.97381625251921 2 7.334232948312934 174.65351762665722 2 40.616886506771593 176.07604840992326 2 54.892285823227972 186.27346216021175 2 36.706711306393053 184.68565604480307 2 130.46179955172693 197.21556755420215 2 44.735455591502387 12.371403787325406 2 98.815811593770164 2.7844324457978455 2 171.11328268728121 2.7844324457978455 2 182.54043145019332 7.2528897794573695 2 169.04696469019873 14.955272327728135 2 178.65929989156211 5.366407404070447 2 145.42892469166551 13.780423081971124 2 79.444546565500119 30.258208607858659 2 91.36854198297992 28.919893220089175 2 56.411584658361562 37.731668677615289 2 100.43912568030035 43.058618895983514 2 45.264116591300656 53.261793042765134 2 129.44613551191631 54.582093091624046 2 123.91031903723194 68.504857017192577 2 39.093314085752993 72.546648381007316 2 35.050531783583885 65.775752103463219 2 11.586356678328267 82.381943683554141 2 122.10067386565862 87.399214900923511 2 168.62293532533494 86.071852457912726 2 48.480964791882236 91.251761249375932 2 57.787227275477527 101.57676253255987 2 54.009123132809243 111.06480595164975 2 108.45588885469792 101.23389569853293 2 125.4015618861952 124.24074336701307 2 108.15650969318995 129.4015903646399 2 96.929939195164991 125.02803206986096 2 96.755426560820695 130.55680044777802 2 103.99581982127137 140.23790700178407 2 86.259797788044679 150.12890870051822 2 62.896509257404837 137.71466001040326 2 133.85032643328091 154.81137484541725 2 55.924491696429726 141.09050283987932 2 187.9709195156683 157.76070779364886 2 78.036402327808972 155.57575042327798 2 178.90897714586083 159.56254543834189 2 78.234719344665933 169.41287889989533 2 128.51017036592378 162.74896382886018 2 22.123721809694487 177.15546028021234 2 189.20581539048504 170.76437588055157 2 3.5202175881619979 178.55367813981127 2 35.499913683395796 171.016055915447 2 65.381927313659247 173.34302154499204 2 58.433044175809542 178.23970753709364 2 34.926957607420455 197.21556755420215 2 26.791768721492875 192.88590963878673 2 133.03024567395585 185.97520745991824 2 14.979260164916406 6.3725427737097462 2 2.7844324457978455 2.7844324457978455 2 62.252072948509344 4.4820559035877627 2 144.89268350594926 2.7844324457978455 2 30.635165575785791 11.549511622378285 2 164.84725875662073 17.833260654038487 2 87.12095472986141 18.155766545103155 2 151.11556271206689 27.193455822804957 2 90.354374065722055 40.032684365357539 2 94.920036585541581 42.096751755693369 2 45.78599873395089 39.833398829270884 2 112.64059207745505 45.719599574583242 2 57.056533056351498 54.068656111258008 2 2.7844324457978455 41.688748518143825 2 34.318103784618685 57.176346745577106 2 143.8266355355137 55.530949629751127 2 68.746549984450041 59.778948493915657 2 137.84379476361676 56.181090695288916 2 51.05933926635219 61.86138456780813 2 54.73955474110015 76.172161353329287 2 16.015795733004673 68.378970310525318 2 7.2991833758740059 69.785069541440976 2 49.372142891652864 86.844258289319129 2 33.857412141175857 97.439784714407722 2 98.038705390345456 108.36729146093514 2 118.84825257223912 110.07779242269295 2 132.53467387482257 136.00067227404975 2 113.73103208724427 129.66804736530739 2 104.29794728772832 144.5712774859079 2 88.103476048629531 140.12996567268439 2 71.928448850511174 137.40346949268022 2 132.5831596653322 144.85719524408094 2 68.178598120758338 161.84163262062879 2 64.008559785867618 145.83274581767546 2 114.27932416510113 153.3355943613428 2 179.01930834834522 149.51714969361777 2 136.99253759028409 173.33214263075098 2 116.27925252827728 173.04954760199479 2 23.165831215803379 166.57757048470404 2 185.70353246279129 165.0230996077365 2 31.234990141941946 176.38259943305385 2 77.210968106673562 179.74856264998371 2 50.020493650330081 175.09703721962896 2 33.147192901995197 188.79592682526854 2 122.37126706826223 197.21556755420215 2 19.859106805430859 7.0141108110143877 2 7.0973044868423356 10.08579978979243 2 47.678815387132346 16.971977329679234 2 101.08262879424161 7.2701876656127773 2 154.89437596573384 13.583309179848742 2 194.06463816495207 5.0848800900868421 2 167.52039892674438 28.541908863036145 2 171.13972476138315 24.917032398508994 2 74.765199299854416 26.127748851764686 2 134.70264160127633 13.917273157719126 2 84.162468109021887 22.277873000234109 2 95.762533104993807 30.857031034231202 2 108.11281052812741 53.354918553501513 2 71.221781417961381 46.538516909352879 2 40.058447047011335 52.15504973439036 2 119.55944518068118 65.967848819365315 2 62.679253676426995 66.347676151270932 2 132.27256327312008 67.411934449357446 2 43.458070785618723 72.925591177295118 2 25.623552647061487 67.838919421159403 2 28.2904511799183 76.856040527894606 2 6.9417170247771374 80.112172203370946 2 116.62492033755989 86.862494741303209 2 43.651338850634573 84.414780708026072 2 60.109435450219117 96.467758772573987 2 45.908316052369955 104.95353487590801 2 105.76762250943401 109.98262153154569 2 128.80699654978704 133.55038851118462 2 122.68778048442188 128.89590975151688 2 133.92874034609935 118.47956848183894 2 101.18511082293412 132.08158304784465 2 95.975048490631934 142.86078138828663 2 117.15162731414377 138.12783685921713 2 53.644799691972302 153.19627598768378 2 127.77663831758808 143.32123003404968 2 58.319644996830753 153.82098573034594 2 187.46357293067052 149.92351312071892 2 72.808784397847461 161.33590495943275 2 95.822564529658791 147.50095155374044 2 81.959318826783175 157.18913197597487 2 123.85295434044124 166.24323363316807 2 12.324473425284614 174.85323297423335 2 73.692670288849655 170.6459960293636 2 55.837991949822396 167.35119708253265 2 45.662932076151947 197.21556755420215 2 127.68336360309782 187.1847236427281 2 16.308130706476206 2.7844324457978455 2 51.056884336518621 7.3509934301906714 2 112.80402548449409 2.7844324457978455 2 151.91617986620196 2.7844324457978455 2 197.21556755420215 9.1390322465513858 2 165.40742595229207 8.2592757865663931 2 187.89674998835761 22.517372692973257 2 89.511172662004284 21.396295093039438 2 81.069895247131072 38.993362137828399 2 55.925951026689965 47.360766919971063 2 2.7844324457978455 51.521099764846326 2 30.515192375127317 53.546140890909349 2 59.7824161650042 62.530246213214667 2 45.235083900004405 80.664779796806002 2 14.765304564178841 63.413890522506918 2 186.74700901315879 77.680413759856734 2 111.00848443835405 67.511367506058633 2 162.77815798193618 80.364666161686316 2 
[...]
<PointData>
<DataArray Name="Points" NumberOfComponents="3" format="ascii" type="Float32">7.277716443502781 13.416842415647091 3.0 55.248484411813898 12.021184754116661 3.0 98.448445705449103 11.539634438561059 3.0 159.55255758160041 11.351445754792064 3.0 183.43422631648383 2.7844324457978455 3.0 169.50574533887809 19.351560711306362 3.0 182.25337458009872 22.078785211824485 3.0 87.586951958904521 25.956145191257654 3.0 99.545056007434667 27.343046742461258 3.0 47.602307230598832 34.824161971019201 3.0 63.501186184990935 47.633325611118657 3.0 11.006510374139996 53.12238403137696 3.0 38.598255964243826 56.75156923450772 3.0 127.24567099869714 59.319903084091493 3.0 54.968964931545806 69.566698344423941 3.0 29.798416036813187 71.886861624729562 3.0 25.280746211623427 72.739222522676187 3.0 183.37165955047627 74.279620958387525 3.0 111.61109801465423 88.711360270422404 3.0 39.643832047772591 88.008009353467344 3.0 62.573694798792246 100.4628360902708 3.0 46.307954853320375 100.08574980844543 3.0 82.718533286219184 113.75072925063631 3.0 102.68287211579153 106.28459904143595 3.0 129.46315299660063 126.29992377400303 3.0 113.66968750617868 124.20339730252181 3.0 105.79913808493131 133.09466745652773 3.0 99.72619346437925 139.47556429069718 3.0 122.22895789049782 138.00401385726096 3.0 75.90293269277791 135.30961459447084 3.0 67.61975270719546 137.11654043084272 3.0 52.607236617386796 148.37948765641244 3.0 124.37081738417508 150.2340191333075 3.0 184.64263314734322 145.5489851270512 3.0 77.624154218550331 160.4911301461037 3.0 97.929950518949909 151.77448270043581 3.0 85.731568052670752 165.08608603074939 3.0 132.68246283100103 170.48361676805305 3.0 112.046394357373 171.45731151591417 3.0 187.58531896935651 173.67931450632457 3.0 71.151317761270093 165.83178594113838 3.0 52.511776565631287 170.56082150292605 3.0 42.819530288019379 192.85552865936683 3.0 20.027980928174557 197.21556755420215 3.0 130.94239507586326 191.42538396655337 3.0 23.622246724174733 3.5591086602947919 2 58.002321995128035 2.7844324457978455 2 108.33195508090824 2.7844324457978455 2 157.8054761389904 7.0801222709021525 2 37.330664986674407 7.605229065604254 2 190.86921489626437 12.789036614557892 2 164.04090453986618 13.075872152858636 2 186.27270083597656 14.451780484023129 2 69.614364177326379 22.214856926463455 2 96.423412907370377 16.032789746301962 2 102.65040462709298 35.753467498103589 2 43.746480842040967 31.245869800055793 2 54.60037172778221 42.526396182814295 2 2.7844324457978455 56.616937588818338 2 35.355536451176739 51.928909414073317 2 134.27465533342544 52.010741177373241 2 67.416353156497877 55.285174922132313 2 137.44458107071031 66.955376693728567 2 52.66727598338683 56.866991808670043 2 34.595143856842306 81.276233023840234 2 21.090220841960072 69.87435222456277 2 2.7844324457978455 76.977937440751901 2 163.41552669060277 85.831417435748548 2 58.33774809607646 85.091432619761761 2 39.901087580205392 106.38611154978182 2 95.017647449606983 120.24996778430346 2 122.47420994475465 105.87365935901181 2 112.40197230187107 115.78168195670402 2 49.222495141691319 116.95371661587879 2 112.57268237961418 136.19519022713678 2 85.396977250380303 127.95630900488861 2 112.82896960318028 149.193941939387 2 84.167013896965855 141.34044723014381 2 76.817652270119751 149.07381140387142 2 66.208231568729602 153.83596101295527 2 71.791534470925626 148.99305663994789 2 109.00773987998326 161.05149468354045 2 123.54244593104519 172.97381625251921 2 7.334232948312934 174.65351762665722 2 40.616886506771593 176.07604840992326 2 54.892285823227972 186.27346216021175 2 36.706711306393053 184.68565604480307 2 130.46179955172693 197.21556755420215 2 44.735455591502387 12.371403787325406 2 98.815811593770164 2.7844324457978455 2 171.11328268728121 2.7844324457978455 2 182.54043145019332 7.2528897794573695 2 169.04696469019873 14.955272327728135 2 178.65929989156211 5.366407404070447 2 145.42892469166551 13.780423081971124 2 79.444546565500119 30.258208607858659 2 91.36854198297992 28.919893220089175 2 56.411584658361562 37.731668677615289 2 100.43912568030035 43.058618895983514 2 45.264116591300656 53.261793042765134 2 129.44613551191631 54.582093091624046 2 123.91031903723194 68.504857017192577 2 39.093314085752993 72.546648381007316 2 35.050531783583885 65.775752103463219 2 11.586356678328267 82.381943683554141 2 122.10067386565862 87.399214900923511 2 168.62293532533494 86.071852457912726 2 48.480964791882236 91.251761249375932 2 57.787227275477527 101.57676253255987 2 54.009123132809243 111.06480595164975 2 108.45588885469792 101.23389569853293 2 125.4015618861952 124.24074336701307 2 108.15650969318995 129.4015903646399 2 96.929939195164991 125.02803206986096 2 96.755426560820695 130.55680044777802 2 103.99581982127137 140.23790700178407 2 86.259797788044679 150.12890870051822 2 62.896509257404837 137.71466001040326 2 133.85032643328091 154.81137484541725 2 55.924491696429726 141.09050283987932 2 187.9709195156683 157.76070779364886 2 78.036402327808972 155.57575042327798 2 178.90897714586083 159.56254543834189 2 78.234719344665933 169.41287889989533 2 128.51017036592378 162.74896382886018 2 22.123721809694487 177.15546028021234 2 189.20581539048504 170.76437588055157 2 3.5202175881619979 178.55367813981127 2 35.499913683395796 171.016055915447 2 65.381927313659247 173.34302154499204 2 58.433044175809542 178.23970753709364 2 34.926957607420455 197.21556755420215 2 26.791768721492875 192.88590963878673 2 133.03024567395585 185.97520745991824 2 14.979260164916406 6.3725427737097462 2 2.7844324457978455 2.7844324457978455 2 62.252072948509344 4.4820559035877627 2 144.89268350594926 2.7844324457978455 2 30.635165575785791 11.549511622378285 2 164.84725875662073 17.833260654038487 2 87.12095472986141 18.155766545103155 2 151.11556271206689 27.193455822804957 2 90.354374065722055 40.032684365357539 2 94.920036585541581 42.096751755693369 2 45.78599873395089 39.833398829270884 2 112.64059207745505 45.719599574583242 2 57.056533056351498 54.068656111258008 2 2.7844324457978455 41.688748518143825 2 34.318103784618685 57.176346745577106 2 143.8266355355137 55.530949629751127 2 68.746549984450041 59.778948493915657 2 137.84379476361676 56.181090695288916 2 51.05933926635219 61.86138456780813 2 54.73955474110015 76.172161353329287 2 16.015795733004673 68.378970310525318 2 7.2991833758740059 69.785069541440976 2 49.372142891652864 86.844258289319129 2 33.857412141175857 97.439784714407722 2 98.038705390345456 108.36729146093514 2 118.84825257223912 110.07779242269295 2 132.53467387482257 136.00067227404975 2 113.73103208724427 129.66804736530739 2 104.29794728772832 144.5712774859079 2 88.103476048629531 140.12996567268439 2 71.928448850511174 137.40346949268022 2 132.5831596653322 144.85719524408094 2 68.178598120758338 161.84163262062879 2 64.008559785867618 145.83274581767546 2 114.27932416510113 153.3355943613428 2 179.01930834834522 149.51714969361777 2 136.99253759028409 173.33214263075098 2 116.27925252827728 173.04954760199479 2 23.165831215803379 166.57757048470404 2 185.70353246279129 165.0230996077365 2 31.234990141941946 176.38259943305385 2 77.210968106673562 179.74856264998371 2 50.020493650330081 175.09703721962896 2 33.147192901995197 188.79592682526854 2 122.37126706826223 197.21556755420215 2 19.859106805430859 7.0141108110143877 2 7.0973044868423356 10.08579978979243 2 47.678815387132346 16.971977329679234 2 101.08262879424161 7.2701876656127773 2 154.89437596573384 13.583309179848742 2 194.06463816495207 5.0848800900868421 2 167.52039892674438 28.541908863036145 2 171.13972476138315 24.917032398508994 2 74.765199299854416 26.127748851764686 2 134.70264160127633 13.917273157719126 2 84.162468109021887 22.277873000234109 2 95.762533104993807 30.857031034231202 2 108.11281052812741 53.354918553501513 2 71.221781417961381 46.538516909352879 2 40.058447047011335 52.15504973439036 2 119.55944518068118 65.967848819365315 2 62.679253676426995 66.347676151270932 2 132.27256327312008 67.411934449357446 2 43.458070785618723 72.925591177295118 2 25.623552647061487 67.838919421159403 2 28.2904511799183 76.856040527894606 2 6.9417170247771374 80.112172203370946 2 116.62492033755989 86.862494741303209 2 43.651338850634573 84.414780708026072 2 60.109435450219117 96.467758772573987 2 45.908316052369955 104.95353487590801 2 105.76762250943401 109.98262153154569 2 128.80699654978704 133.55038851118462 2 122.68778048442188 128.89590975151688 2 133.92874034609935 118.47956848183894 2 101.18511082293412 132.08158304784465 2 95.975048490631934 142.86078138828663 2 117.15162731414377 138.12783685921713 2 53.644799691972302 153.19627598768378 2 127.77663831758808 143.32123003404968 2 58.319644996830753 153.82098573034594 2 187.46357293067052 149.92351312071892 2 72.808784397847461 161.33590495943275 2 95.822564529658791 147.50095155374044 2 81.959318826783175 157.18913197597487 2 123.85295434044124 166.24323363316807 2 12.324473425284614 174.85323297423335 2 73.692670288849655 170.6459960293636 2 55.837991949822396 167.35119708253265 2 45.662932076151947 197.21556755420215 2 127.68336360309782 187.1847236427281 2 16.308130706476206 2.7844324457978455 2 51.056884336518621 7.3509934301906714 2 112.80402548449409 2.7844324457978455 2 151.91617986620196 2.7844324457978455 2 197.21556755420215 9.1390322465513858 2 165.40742595229207 8.2592757865663931 2 187.89674998835761 22.517372692973257 2 89.511172662004284 21.396295093039438 2 81.069895247131072 38.993362137828399 2 55.925951026689965 47.360766919971063 2 2.7844324457978455 51.521099764846326 2 30.515192375127317 53.546140890909349 2 59.7824161650042 62.530246213214667 2 45.235083900004405 80.664779796806002 2 14.765304564178841 63.413890522506918 2 186.74700901315879 77.680413759856734 2 111.00848443835405 67.511367506058633 2 162.77815798193618 80.364666161686316 2 52.176758976416188 94.371272903548444 2 31.902019138481602 102.90686076366219 2 102.25008230423977 116.95806926098841 2 106.26753843349535 114.777197780588 2 133.78653382821975 126.2455757328639 2 107.7873750194274 136.98623676766243 2 93.207600625371597 128.4818928156603 2 117.25158702701012 146.70712134763951 2 84.132907380756279 136.81198311889864 2 73.11611456962622 144.91680904373897 2 64.871921351437621 158.56911340458328 2 65.524375798981339 141.50014605611815 2 113.82216934848388 158.34491642145014 2 83.198398142340451 169.29627579019328 2 119.87493395188436 169.6925500482416 2 15.379229166621192 171.04279969400582 2 192.60091034134209 159.20908208909506 2 38.312042752368001 180.14138212937368 2 67.187122678917603 183.90754331245631 2 50.72041135368363 182.48751490604914 2 41.574461514466869 183.89516443291285 2 141.23180621773199 192.0346492003157 2 44.057552616540328 2.7844324457978455 2 94.098083583641042 2.7844324457978455 2 174.50911829745613 5.4876579993214447 2 187.24610669507462 5.7022563574459451 2 177.90757837404621 19.802835161548522 2 181.82440776685846 16.81159826556209 2 139.44445231119687 19.693732514194824 2 91.052424321836028 33.484735517277592 2 99.500621553284731 22.157638213295549 2 49.299502757361296 43.166297830731899 2 104.54851946092273 39.803658505497573 2 10.119896811228257 61.656743544042378 2 43.093866490951989 60.650331046749216 2 122.68585673447542 56.348457998279706 2 55.453607377908043 64.75967273283652 2 40.592050544597143 79.053033858369758 2 41.583557234691959 64.512500663646449 2 24.913340842615035 80.206434154593154 2 12.030819584430082 72.186057480425063 2 124.86262004907249 75.115027366249748 2 37.230428376810103 92.4773597133035 2 50.940756177070057 100.04464807554959 2 84.903960396728095 123.03370323143935 2 117.4920437278187 104.82775814173776 2 126.0600077646269 119.27879030428923 2 109.54142721123594 122.33069935732154 2 102.21239452768197 124.05518197005463 2 91.729449943580349 138.35665656720141 2 112.56337018256563 144.64551304513719 2 180.09936628596225 144.73254358657604 2 80.25344421694615 142.77676572178416 2 54.943686657641052 133.3109058881758 2 60.514778966815214 142.05662972969014 2 73.819315797825482 157.05772839544954 2 182.84080527022149 157.64833570815131 2 129.56211595236152 157.2518666123612 2 119.01557102551935 164.86378889572586 2 24.649408792704534 169.73388674340174 2 192.89984293775032 164.04158003361314 2 11.342334427107426 183.55676274567608 2 61.700508688213205 175.42671650721445 2 54.642772550071854 180.743628308155 2 184.99098578302906 170.30003338423307 2 40.348943710028998 197.21556755420215 2 24.901206385591923 197.21556755420215 2 139.60311518029431 187.02914953299577 2 7.1454784134950877 2.7844324457978455 2 2.7844324457978455 6.5255817013939135 2 145.07114190389586 8.5747270262589907 2 33.510825040137327 15.721540897439555 2 161.34922667735106 21.211419542565721 2 74.285463407145315 31.160247781176047 2 149.96357318098399 17.332760318768138 2 44.915511372554811 44.942516354581329 2 107.05712167943716 43.763204838058577 2 53.170588777321797 51.454668894113617 2 9.7978482839167409 47.799522271673574 2 27.677389299491828 63.289898265848947 2 136.4332282811782 62.198830479474388 2 46.62028630164636 64.398131081285555 2 48.284133059789227 74.02244317292066 2 18.743978899389411 78.111106971271596 2 2.7844324457978455 67.062818904393339 2 119.54603340503489 77.221768243564185 2 49.127568822316498 82.613275062531244 2 36.929757873469065 102.07492834189148 2 90.436008125752252 106.5874401100825 2 95.530491765554174 112.20276871034217 2 130.09326775809402 116.6590141495 2 121.76959943574067 120.35281630731212 2 48.220579410876624 123.48146681926688 2 124.20782358774818 133.57903222358422 2 89.411583009156232 120.36715624166176 2 157.46060028266589 127.40561696680516 2 108.77404508055966 152.02985593233521 2 175.78903442496625 136.60750175060122 2 92.025609097048601 143.50381357442541 2 49.088061426441705 138.97547472326514 2 60.516707986775721 165.83320033295959 2 56.967729707147363 149.84581766693091 2 105.75773434336713 156.45759913449237 2 181.43495677990234 153.17205000248757 2 86.506747183066352 159.98043043403649 2 128.50964630854364 173.09884069766716 2 114.57180703614185 178.07679391986585 2 17.47826378919649 175.18827794008959 2 31.579289796154818 171.88391844026717 2 69.838239802149218 173.97439024043643 2 47.43878342076718 178.60790875493001 2 31.96054694448792 184.62643192099947 2 122.83243827277818 189.88218786707523 2 55.576013338710844 7.1198366971527625 2 96.039395760705148 7.2402444137943212 2 159.60737849651343 16.306624711459747 2 190.11511376043356 2.7844324457978455 2 173.46076241766144 20.746057724696932 2 176.28968446962412 24.690146199775253 2 83.431116805752808 27.487376112178147 2 52.903710645184468 33.711339682175733 2 62.831816920302948 53.341802763594657 2 7.5665219011497022 57.320629871542856 2 42.845082921998895 56.467511845937914 2 127.35244058474557 64.962598253063319 2 52.191155803730517 72.332498743988793 2 32.823079999669098 75.91068781702424 2 22.183409829884155 75.547889159467402 2 109.95472187723247 83.586067723946371 2 34.403880850882345 87.528376621371166 2 47.791035972980801 95.727974281297818 2 87.453204861357904 115.67672292883586 2 101.34886605633889 112.24352443420081 2 126.95839152590059 129.41397811060713 2 113.6994738463176 119.86460383552689 2 110.4260547861815 132.7308638138764 2 102.82301746222944 136.12624995871133 2 160.57400156842891 135.24713209994098 2 124.15529716551447 141.74611081791551 2 80.329231032014206 133.51438766312867 2 51.590428703453263 142.93364026084211 2 122.50148513837966 146.42805425679001 2 59.689109466422266 158.73324870665101 2 183.23117162836607 149.0750958259442 2 75.594586990010271 165.2360072524823 2 103.23932877079086 152.33271590049966 2 82.299950262774672 161.45250269211482 2 133.0268487331206 165.1956632578779 2 114.95201621598927 167.81210363178641 2 14.02501203264128 179.29649493921565 2 68.916605908437248 169.426502574392 2 57.094368396462052 172.50716556142993 2 40.876121257974297 188.31305111824369 2 135.96538452000522 190.77281561334388 2 27.324403388788845 2.7844324457978455 2 53.205055327061793 2.7844324457978455 2 106.14100078799191 6.9860733469206782 2 161.21321750272736 2.7844324457978455 2 40.053329101437484 13.609617442983867 2 193.90891105367334 15.879476726243247 2 168.77101002714531 11.010475735779776 2 186.69214668237382 10.015897114626675 2 91.708541628559502 16.753748930299398 2 77.660016584535271 35.110184418611468 2 101.82471752857776 30.99015595125595 2 59.748259578421639 44.219537474553995 2 2.7844324457978455 61.701083407867067 2 31.63607648542127 48.249335365391161 2 139.96295658664067 52.165780791028631 2 71.658991163078824 51.969648818170526 2 142.05086347063727 64.563801126907777 2 49.457770579800972 54.117778424224859 2 38.828036859636491 83.508925075230323 2 19.888942898497557 64.803715404599885 2 2.7844324457978455 72.004859685719154 2 115.66144259269899 69.752855529469571 2 168.48699172256858 81.006232842659401 2 53.709549728640233 89.525803969669923 2 44.017817316897684 109.32520749822046 2 92.554368334330562 116.38655418951191 2 123.04485625214811 111.08034147461031 2 115.40990103175497 112.82154924221743 2 137.38923226899152 129.09606651690612 2 14.081155313210958 122.22843017324081 2 115.56363302851356 133.52386848862349 2 88.40952114766192 135.04770733508661 2 156.83992107945056 132.47122024963619 2 119.08896651387164 150.81828833424137 2 88.131470810283986 145.13333785972677 2 81.009365259589217 147.94059403190818 2 70.621989347246668 153.21504295794355 2 66.97848152941971 149.62676339955047 2 104.35917769530062 160.59653611685115 2 136.9182667325247 167.95226880234907 2 124.42465912429097 178.3867041247324 2 2.7844324457978455 173.22846567983612 2 45.007727021684858 173.89081478201294 2 72.176969397764537 188.06535508845593 2 50.15688710480611 187.70272329779147 2 37.035134520818396 189.3411681667308 2 135.73771844239508 196.69885621390503 2 46.508452467325718 7.587146258521968 2 103.52351396338246 2.7844324457978455 2 166.04100982158158 2.7844324457978455 2 182.01677587147182 11.843870534813464 2 173.15258131620021 10.506023867415058 2 177.50555455037536 10.289003718168722 2 140.14818211884256 9.7372985072009453 2 86.669525329039431 31.104806285088252 2 95.877001356386103 25.858294297939839 2 43.034238941003707 48.87481152959888 2 133.40425197970046 57.736438410872175 2 59.077923778808056 74.918172186725499 2 120.38870174411865 72.107364732360807 2 38.585799287384347 67.885284340633774 2 34.478309366615569 70.946793857153494 2 24.054705651960205 86.648542182378335 2 16.042296894262783 82.120003640923898 2 42.568262950936408 91.878406176368657 2 55.922091326281119 106.2085573453511 2 48.891013724802072 110.12221138907584 2 109.21409172465096 106.33502042923448 2 120.9018261128158 125.006836267748 2 110.88648735303191 126.80740781155646 2 99.913568334566449 127.62160648516006 2 97.98153194136097 135.0935413864679 2 99.964228395675974 143.86424607442794 2 84.212840482320289 145.85632813238897 2 60.341814549850156 133.40344755805677 2 133.5714650819445 149.72781526292377 2 58.12145877619313 137.36717568528056 2 189.85325520490372 154.13115779964704 2 81.432795500086769 152.23891361506031 2 180.97052724962768 162.8253191527767 2 80.367166747682575 165.1122790647496 2 133.23450145378931 160.35836116275581 2 26.693848023468881 177.94056876839042 2 193.03395653648772 168.26389701451524 2 6.0152748039576354 183.41185990405398 2 40.085653743347812 172.01122062155574 2 64.385168319168443 168.87094811300719 2 54.227260639770208 175.64749494360871 2 29.785969670843993 197.21556755420215 2 28.667999630733227 188.95280808419869 2 137.24349338942585 182.432831991028 2 11.81071152690898 2.7844324457978455 2 6.5132737690868234 6.5296971216939008 2 148.98130698609202 6.1634934554781209 2 31.430867475318777 6.9606814068829888 2 189.86149143857105 17.952166258941549 2 166.3904493258257 23.04676681888386 2 83.314054068595951 17.036684917513654 2 153.14984342484351 21.83428019949443 2 85.319887041421467 41.567781714281914 2 98.086031429901354 34.447575201525261 2 42.41187778746