<?xml version="1.0" ?>
<VTKFile byte_order="LittleEndian" type="UnstructuredGrid" version="0.1">
<UnstructuredGrid>
<Piece NumberOfCells="0" NumberOfPoints="466">
<Points>
<DataArray NumberOfComponents="3" format="ascii" type="Float32">19.963728406272519 8.6119418755175516 3.0 8.3227009256046003 10.201583708281952 3.0 54.34817893088789 10.082349242250924 3.0 98.425402176815922 9.6904649709300141 3.0 159.66672182245711 10.462326654162371 3.0 187.57028748793502 5.3635693120899273 3.0 171.60197274054056 20.555732073931921 3.0 179.98283644009925 21.820027758918172 3.0 98.017374388805564 19.067215844645681 3.0 135.31426238965349 20.919400812376789 3.0 88.025899124046617 26.974092103353009 3.0 98.201891592621152 29.687070561774778 3.0 15.647884159503704 37.881737679410605 3.0 49.594861026969951 37.293415983606202 3.0 101.32855496268485 48.665905977967633 3.0 62.596178924936382 51.941262295527366 3.0 6.9912407241449044 54.754538157505387 3.0 40.224228888794826 58.254643230728576 3.0 129.24963307589144 63.052878431836447 3.0 66.2395857281563 67.385149594821584 3.0 136.30917835411739 69.19785695817545 3.0 49.180800708910482 71.712412166843208 3.0 34.16815575065371 71.867433279096886 3.0 22.253732802282624 74.742104086930553 3.0 182.87318696567897 75.737587853457896 3.0 7.4985978228573176 84.065746866191702 3.0 112.68000233773897 84.883753338380572 3.0 40.856283583228297 89.673315088529534 3.0 62.096440377844864 100.44126150243441 3.0 46.538441761468206 97.623917276974311 3.0 85.08575838446383 116.73503385726758 3.0 104.40158096550412 115.57110600033933 3.0 127.92609174061415 125.54424211549083 3.0 112.15971222843993 124.1309410558342 3.0 14.79647132804816 127.71231510792383 3.0 107.30589559488843 132.80342753114277 3.0 100.7558502147134 138.06961983778706 3.0 160.40642192882336 139.38522124573072 3.0 117.9487080171421 139.6375094689825 3.0 76.805087922689992 138.45158160698776 3.0 68.351065573045389 139.33899063681147 3.0 54.921816908777885 147.3315389731458 3.0 125.85260830078306 149.49331122276035 3.0 57.533732551962913 156.90811167804435 3.0 186.68949775776886 148.06498016679157 3.0 74.961846109780183 160.94792658203855 3.0 101.56792918708062 150.23266094445529 3.0 177.95388606487759 164.63195736941191 3.0 80.847971513918921 164.45063321092124 3.0 130.94447751473925 167.83334301983678 3.0 113.97266110173591 169.42498073245372 3.0 25.79082042469124 166.40850958652845 3.0 188.95010476259026 173.88960053956572 3.0 17.170163027614027 177.90089187054417 3.0 34.58230305615745 169.35575187256143 3.0 69.60396004266056 167.12996205076044 3.0 55.524618094959045 171.65679206367247 3.0 39.647030624273789 189.96049394370777 3.0 21.235571825654521 195.80758583472954 3.0 131.24896365844708 191.39224345878606 3.0 21.176762931203736 2.604196630528539 2 4.89596418559809 14.306517549726538 2 55.016733755206808 2.604196630528539 2 105.80469792347891 2.7262460723602393 2 161.10639955507253 3.4192349344834572 2 36.789638304608751 11.154821168480479 2 190.61147964083759 13.960149515508421 2 167.91252762952826 12.144496887585616 2 185.65920641584833 15.158719797858989 2 69.609884854982425 26.319917636302687 2 93.516388220607837 19.839349672803014 2 142.90914949468785 26.129843794331716 2 81.627139007461508 34.738012206925966 2 99.904958092267833 34.362167383221305 2 44.994119912675508 35.345927681212217 2 108.72246249132965 39.451575190418666 2 54.387994070525131 45.069567225795033 2 2.8602589689043292 57.690287754078504 2 35.297584527248688 54.604718869286046 2 135.84488486070083 55.557604841580414 2 68.514518010354507 55.570446915549375 2 138.92888265433893 65.205900601160451 2 50.706530109612657 58.982270757802276 2 40.592933075795933 81.139585040851472 2 21.408363033727298 69.019665908712156 2 191.38291886359767 78.091703960291412 2 2.604196630528539 77.867879786284348 2 113.18187415641427 74.674654863511563 2 167.30022532361315 84.543979155303248 2 54.232259683863433 90.297722764131947 2 62.706747947903992 95.257390471585268 2 41.574585679048425 104.22857968040294 2 82.37241946480458 107.39445462361982 2 98.363291220597773 122.26494389276179 2 121.52542859477069 114.49005576534202 2 113.01872937700796 119.17185348167867 2 135.69521042404099 130.17932500046601 2 8.8604870599449388 125.89983796947858 2 48.16417203965085 119.17826741785694 2 111.75134949328546 134.12413250509132 2 89.970804749505731 132.91720215841249 2 155.08032074486366 136.49008275305221 2 111.82901977106279 147.77517097700721 2 85.340986505421625 142.01883402247614 2 75.861562973827802 148.37623799377434 2 138.59694176557326 155.98748472279362 2 65.990775170887176 153.50545314523384 2 68.713358288479043 149.73620171208213 2 107.97426493681346 160.4819844112703 2 87.497255579776379 168.01705723053669 2 136.01417284064169 169.45607675880532 2 123.10931959373156 172.77645496256545 2 194.08947998796961 161.90750291373618 2 7.3057647933661931 173.90377843932771 2 39.064794235927188 177.95126868088195 2 73.693490712312382 181.58628625941796 2 52.466433656009173 185.21890087662157 2 36.006853545099368 186.56220058670837 2 132.07074806827558 197.39580336947145 2 46.569538942715532 7.328333729538266 2 100.84888291598654 2.604196630528539 2 166.09531684719147 3.7464030109652304 2 33.337513932700382 17.962289034741069 2 182.18681290176556 11.014353955724077 2 172.63533151342176 14.214427850945574 2 177.5684034949418 13.111842845536016 2 93.978567262797952 14.610486913833741 2 143.11230008734529 17.154088900707752 2 85.456416554533547 30.977043529751505 2 92.952235753775369 28.720304322473364 2 53.828590197373188 39.975325989688308 2 99.067743496248482 44.173903320101722 2 46.514504863183845 56.044292620021054 2 131.11414137973389 57.463917242930052 2 61.30683750924905 68.298497309660718 2 126.58507561976819 68.472856216385168 2 38.918305342306859 71.74689687102412 2 37.319110854824181 67.001146162202289 2 17.171888001073921 81.401763790495423 2 12.124579123154438 80.958095970725154 2 122.75019618857525 85.204223890441668 2 171.44665159642108 87.638834336895115 2 48.475324428186177 93.24640058063963 2 55.112621430234995 101.37726199567409 2 50.520534946337172 105.48483923086737 2 82.675759912243095 121.07944650510427 2 110.25412616230146 109.92332999888403 2 122.95573817802375 124.54774547327297 2 106.63040509057134 128.32939648061034 2 48.621987217858077 129.73483129766751 2 98.740374048126682 128.51603339101271 2 98.393800569824535 133.69540019045738 2 104.6741827570555 140.99023429005121 2 186.05825817039434 143.20946892654896 2 80.903165578142961 147.60684211442731 2 64.160249743854763 141.63363002921068 2 38.344146509904071 145.92536966999157 2 133.98277473312453 153.58241805337875 2 55.361484337926228 142.48106233085031 2 188.22478087042441 156.18909746023849 2 75.728582934830754 153.48025198552341 2 103.24288459033379 159.35985780866488 2 179.98504273888008 160.2218757776775 2 77.23382972107315 167.75443135775504 2 129.86654894649391 162.93079474471315 2 117.67849803040889 160.24201346586213 2 23.262929793607132 175.66684695644028 2 191.2895105665425 169.57990827361891 2 7.3460559095810858 179.15031405539031 2 37.17450041457748 173.28967981503703 2 65.769486826431915 170.76815091752633 2 57.511133379498524 176.33944491022675 2 184.19289651268303 173.91303646092305 2 32.881676727544068 195.20398170403305 2 28.421021159772334 194.2754005315538 2 134.23730675050595 187.56136511435605 2 12.091712788166198 2.604196630528539 2 2.6051605326811886 2.604196630528539 2 59.410754869584181 5.0228928326428228 2 108.80943264141045 9.7276004124691955 2 151.15273432564726 2.604196630528539 2 28.874622342256085 8.8234532271620036 2 191.21131395037227 18.957801613325223 2 168.28612640460955 17.025551180669986 2 183.65867365334975 25.292201690899404 2 71.90887401969762 31.927747756104417 2 85.380428269458875 19.782705142477727 2 148.06093528667 26.180337446495002 2 91.131541130628662 38.216797944615863 2 96.02036719982938 38.155224269711113 2 45.439298652366134 40.48456266051776 2 108.69446589240486 44.740052769029411 2 58.022835993487242 53.679257268735427 2 2.6041966305285391 47.252320769939885 2 36.25534959485222 61.241885210664726 2 140.92600001473122 56.613854277424934 2 67.778475164933852 60.678083537417372 2 137.53826995219865 60.302541870688913 2 48.844975048242809 63.403671268916469 2 51.476102422792835 76.135041485275593 2 15.985476694294444 71.374677904970014 2 187.76698640955703 74.419749596841314 2 6.1147310904504781 74.071763289413099 2 113.96890930301203 79.781481360500919 2 172.72958489967968 80.060253370948047 2 49.383912190947697 88.474201073110137 2 37.493301593514673 96.45338887126124 2 87.032169061339701 105.46065578925301 2 98.674706349860656 112.18845721936162 2 131.16051232230521 116.42026572824798 2 117.58177419935654 117.28941067987874 2 133.21421241356018 134.71360930707237 2 42.4478854205408 126.41456923644938 2 114.37576794519258 130.42329089757735 2 89.659268449603289 127.68668539962047 2 106.02220411406523 145.68845527279507 2 178.59596698044979 135.02856125382797 2 87.559189084836405 137.36892448573002 2 73.193920716178965 141.66488809627671 2 50.567046479474349 149.10994348847569 2 133.26939833164056 147.41774745788211 2 67.779818186636874 162.71724359672257 2 63.179791230324 149.26528616360744 2 111.21369994922068 152.88359525901515 2 181.00265862779619 150.9908116813256 2 89.244361809623626 163.1642720757086 2 133.19360240741631 173.79235245463715 2 117.97638716879442 172.59375359151332 2 20.220070947060474 168.67702495017258 2 186.64811055406838 164.67074374030943 2 10.400233146272001 165.78091746759603 2 33.840110578101196 177.15236940693902 2 74.168894814696969 176.48697912129197 2 50.882484757568413 176.6079447897024 2 33.168422146892929 190.44082686162648 2 123.52144555736179 197.39580336947145 2 15.094421748307097 7.5339733992053413 2 6.8734139966647358 6.5450115901061352 2 49.52292781316946 11.591893173496773 2 102.93556011682848 7.2639257800643948 2 155.60501205948162 7.5899691799561158 2 24.917712079078118 12.196986071423767 2 192.3966033668037 7.3961295880011644 2 168.5439505206553 24.564379180552361 2 175.40454240344678 23.692888598630745 2 76.126326889919653 23.102781509775053 2 100.11461640292319 14.800210133337044 2 137.98550285807295 16.686020931351464 2 83.66281017575902 24.760534993642601 2 94.817195028296908 33.380624007923274 2 13.573660111468433 33.211071288810473 2 50.554821384057924 32.283438369761143 2 106.35019806916749 49.343277795831469 2 67.088884112443935 49.963440880911989 2 11.947135649586118 54.560057522952192 2 40.361455521809475 53.261289851795688 2 124.33256470436567 63.789221589998824 2 63.233282636673664 63.185597212492972 2 131.58267003005187 67.962205779394807 2 43.769846758822027 71.428813634250346 2 29.797320948856598 69.621661479356717 2 27.1306176296636 76.052814078893647 2 7.4789919135461203 79.042436971253665 2 117.69683738956245 84.039401729379392 2 44.662468150585568 86.304851231419818 2 58.127980109066165 97.412096014186844 2 46.272848301666286 102.60507679557657 2 82.550798542343671 112.47326408607438 2 109.41221100687554 114.81052199208976 2 130.48253130488547 129.84411119148163 2 116.63454524892794 126.45501970639455 2 133.89361066818844 120.56345201685608 2 12.955255780067102 123.07267808264253 2 102.7607708127255 131.5659753136384 2 97.34590873516521 141.82232851323286 2 162.66778091455919 134.80239551413561 2 113.08758902770738 138.73110908806376 2 183.53181770241471 138.82594300474497 2 79.083424822509969 134.05943698999033 2 63.386771891897901 136.65717471321733 2 53.962199227046526 152.87424306327046 2 128.53906319512276 145.33783645313952 2 61.485926790630224 154.37449557451109 2 185.78188632677774 152.28979703869737 2 70.586196069581135 158.72960868794706 2 100.89592822683055 145.4524204467248 2 79.721762608112215 159.47372159360734 2 125.87708177767432 168.01596726188865 2 111.18222731634933 165.14351329008002 2 21.928834116356466 164.14495379978416 2 193.62645619914304 173.27234212283349 2 13.457628286426258 174.44105907028984 2 30.052344376976162 168.2642353314593 2 73.067212645788587 170.60066503936773 2 60.358591448309411 169.99551427731768 2 41.034942251206445 194.77432718980995 2 19.86249727764239 191.02213785072689 2 127.8941475385091 187.4683330267743 2 16.587190893091073 2.604196630528539 2 2.604196630528539 10.643287440323663 2 51.428315552045468 6.0026226567441334 2 110.42549604016396 4.8142372625541627 2 156.21171656668739 2.604196630528539 2 34.429289499228588 6.7197526286468401 2 195.57157041856513 12.931644963766091 2 164.30832619539402 8.6117104836666307 2 184.6980085365839 20.169760019374039 2 91.361803766120374 23.93982340660958 2 86.138678526767023 37.217476217235863 2 104.73875581687926 36.207251182845177 2 40.011813950573249 36.185010476835629 2 58.007154360757212 48.553570029539934 2 2.604196630528539 52.422844403648995 2 31.851375504351399 58.510828753005832 2 135.89486054086919 50.48444341134612 2 73.54865307741953 54.778857980635742 2 143.35931645638516 63.147831344498947 2 55.483156908212052 60.844800537549048 2 45.661714124988997 80.6357820181058 2 16.857529059433219 66.298573648623801 2 186.35688975025261 79.329620173737297 2 2.604196630528539 83.060158483642411 2 112.77075957745716 69.523735892411281 2 165.33129600125676 79.765618732634039 2 53.150657280661001 95.414218155073371 2 36.523079033439352 104.52576073144071 2 77.398998753516935 112.59173001199612 2 103.25135209705306 120.50597309950361 2 126.44979716911045 114.78926974434536 2 108.06723851709909 119.29542709117618 2 133.4517676204598 125.5898657310576 2 8.0321898989306906 121.13056275452188 2 43.649768605269216 121.36775206063983 2 108.05445072373939 137.49320558751702 2 94.322615183177305 130.55962097202607 2 114.9936791593494 143.7498457131972 2 81.596020308424372 138.60078148287568 2 71.520479975654425 146.00094081883785 2 65.281191722090014 158.35025924964887 2 66.53713075178635 145.54212127221993 2 112.79619912326611 160.16165918350353 2 82.469569287216302 169.30236748954238 2 134.8102798747675 164.41675095670908 2 120.7481944565376 168.19530672852568 2 15.258353356595126 167.38698381291121 2 189.6213013892947 160.72511107241931 2 10.826219999893111 170.32541609162766 2 35.761691470592766 181.74128982870653 2 68.935022410595295 179.399542645173 2 47.684397277170568 183.15493733377895 2 40.820715919980543 184.86391073711735 2 136.9073322296704 195.53733067477339 2 43.859492433918128 2.9468480939303952 2 95.983303908769003 2.604196630528539 2 169.62588340902781 7.3975181094905853 2 28.53987658011177 15.832293392662253 2 187.19826942605573 10.285849173821065 2 176.01291649524484 18.183514531100759 2 180.91431871403756 16.878043850333878 2 89.469117910979136 17.013633438879744 2 140.44082861899463 21.679296886194241 2 89.785505740338124 33.413472017483109 2 96.430967577719841 24.79332858209267 2 49.642987705556202 43.330975018718405 2 100.6345910211613 39.307124662806615 2 62.773313743543788 46.632443316014673 2 10.986428685741576 60.38861421271335 2 44.436369284429908 60.846979492157239 2 126.15633239834882 58.779076996973863 2 56.815906429687658 65.805447490809584 2 130.00321215232941 72.787217099246433 2 41.258080398122708 76.115233586696732 2 42.160042247717413 65.496029826270231 2 22.249535755133977 80.62437808914342 2 12.348503465767562 75.619926759703972 2 123.63932817419915 80.077655656060571 2 175.31616867773477 84.223598017158508 2 43.294820519733165 93.990655530771505 2 57.793242872040331 105.55134384475188 2 50.57858451814041 99.979357898628152 2 87.41263600965668 123.00841086528568 2 114.27630112277949 113.51174041086604 2 123.57978658929076 119.38124484110584 2 107.22374252424306 123.80240585411846 2 48.441943423338067 134.78403636451065 2 102.46042762796748 125.41230960482505 2 94.114818588402613 136.22872894061683 2 109.93157725433851 142.55427508949228 2 182.38527363439215 146.28459769716039 2 78.159277083123243 143.24863926661104 2 59.643953462439477 140.2007466632497 2 59.603811529576518 145.56171612197656 2 193.13083747959303 157.17946869061296 2 70.860949076068366 153.99288832185488 2 101.46878413148207 154.9195037102586 2 184.90890727219517 160.11311734027746 2 77.735942767827368 172.84814290721664 2 131.27407121546457 157.96901423549519 2 116.62949919703597 165.19115092799436 2 25.795085522729302 171.27335298982194 2 191.38092999448889 165.31568607114355 2 12.450727411278796 179.46632730567404 2 42.211873539466666 173.83363093736722 2 64.757998525477646 176.10978734548704 2 54.371418563366468 180.43035550393697 2 186.31280480075208 169.54459998217305 2 36.885666789432683 197.39580336947145 2 25.223736277563656 197.39580336947145 2 138.87611077488754 185.50212236646126 2 7.5569380729164299 2.604196630528539 2 2.604196630528539 6.5190674136857583 2 59.357559866905 10.0480730191397 2 104.35671907040182 12.196552398976406 2 150.46478302633884 7.6785046425815562 2 32.055705048051202 12.590296015383764 2 195.57088911799289 21.56139032748645 2 164.92050093661936 20.825288795166717 2 188.46937998833454 23.294809371924348 2 74.664798024713363 27.740498311820676 2 80.54227523779187 20.767628505426657 2 145.79672728295691 21.543710717024954 2 88.001205378264487 42.181884905262045 2 93.660301054827343 42.714768975014174 2 43.227626762365134 45.168324002130966 2 104.38786004898293 42.251696581549346 2 53.122201980726466 54.663513396691592 2 7.2757823107989612 49.581671107275319 2 32.679309146116573 64.941937245066185 2 145.62823206403297 58.704664656499311 2 134.07879939320611 63.71598313642437 2 46.738563111602261 67.590966570171744 2 46.333510978001215 75.729900795358603 2 17.475528646358089 76.278471322350441 2 3.2645702855530332 69.75285504965801 2 118.90757660832166 78.873374452691451 2 169.22747829848038 76.445877909703228 2 49.687495884965188 83.564303276450815 2 41.88682050616211 99.066562785756645 2 87.708002567613534 110.71637491500434 2 99.497406511685213 117.20946280475151 2 128.56421610260364 120.66376423640514 2 118.26908581429022 122.06124340338145 2 6.1715879620850007 129.57780800973836 2 47.393709104616796 124.79906086158181 2 118.38165304978743 133.67827654351711 2 92.55956036886684 123.22387218696183 2 157.20107660503891 131.59705979060976 2 106.64191689926655 150.49842485329603 2 178.54747957079141 140.24771992155118 2 91.599460913664302 140.66073477778156 2 72.397431919839093 136.76924988985837 2 50.437744399212107 143.31399253901608 2 62.680763395236866 162.78057307443115 2 58.376721985000799 150.61670156757896 2 106.69972158908845 155.48953256880645 2 182.46897650687876 155.86572675418884 2 84.573941938844811 161.14499054391874 2 128.20070584649528 172.66145638117757 2 113.12915479621591 174.41076101725523 2 18.653912931275009 173.28488154703774 2 182.23001150599168 166.42820929086483 2 30.085407709990918 173.85882299679142 2 69.551775767320123 174.26856604901198 2 45.798796506286216 177.49629483623008 2 29.882082624615528 186.72055845555161 2 127.68959238581154 194.64796217246374 2 </DataArray>
</Points>
<Cells>
<DataArray Name="connectivity" format="ascii" type="Int32">0</DataArray>
<DataArray Name="offsets" format="ascii" type="Int32">0</DataArray>
<DataArray Name="types" format="ascii" type="UInt8">1</DataArray>
</Cells>
<PointData>