<?xml version="1.0" ?>
<VTKFile byte_order="LittleEndian" type="UnstructuredGrid" version="0.1">
<UnstructuredGrid>
<Piece NumberOfCells="0" NumberOfPoints="160">
<Points>
<DataArray NumberOfComponents="3" format="ascii" type="Float32">27.332888282789899 3.8601433258173401 3.0 87.996304228189842 9.4771008142634656 3.0 123.60866374238358 8.9108107500467355 3.0 76.845254202444707 17.690465533616052 3.0 8.4708756838529418 19.928602481670669 3.0 22.090425505594077 20.504129955127116 3.0 61.367571769325849 20.925874983395104 3.0 101.88586409902568 21.577442331858641 3.0 133.65706201620728 29.790037323699661 3.0 23.080220075216356 32.252911252394696 3.0 177.95916665233503 34.387122802475332 3.0 194.06097919744519 37.054812065561279 3.0 112.90748442667659 36.509975883149707 3.0 67.387464899832437 36.913209936456163 3.0 144.91773474882859 37.189214453591497 3.0 29.397235513741979 40.986225685509979 3.0 51.935012306806151 45.34949043217798 3.0 13.133053158106502 45.127866655808596 3.0 155.06866924236445 48.207195254587724 3.0 196.14204680636453 50.69897629004052 3.0 19.929636607147867 57.452401580623459 3.0 100.60555107518995 57.642951524989805 3.0 91.370017598124193 60.528841376050913 3.0 83.096558969946202 65.623497654107169 3.0 189.84754707469119 67.021571588192586 3.0 74.863906143904885 68.667310581162923 3.0 98.908688687465784 71.080427200030599 3.0 175.82806358966297 74.043594435794276 3.0 141.92898505611109 74.340590273798142 3.0 133.97375666637268 78.738442672113834 3.0 74.495859943704417 86.85351959612224 3.0 82.855499849937175 87.713664326267619 3.0 181.8372092766075 87.782764892079356 3.0 62.048165803163002 89.257393368696881 3.0 183.19171639541122 92.678175752750221 3.0 8.7311933786223559 96.796698972766791 3.0 184.04701846614472 100.5712005655614 3.0 71.768058823435283 105.76158813226951 3.0 133.89406319477089 105.74299664193447 3.0 161.01024691166964 110.46560959214634 3.0 3.938005108876089 114.05475811152176 3.0 187.1741299670764 116.40457782707632 3.0 142.55046127167745 118.82886629643681 3.0 185.54599991224856 125.87991951692997 3.0 35.427063631322341 126.39699628844177 3.0 67.158598736836339 128.86200000126595 3.0 74.226893065122368 130.03399387159638 3.0 32.639933807914161 132.17679459293626 3.0 146.88484800222139 134.64604020861483 3.0 20.67913374668586 134.78344085786685 3.0 6.5146445226304248 138.78893660621134 3.0 31.250259301080682 141.45872719235857 3.0 197.539528369462 139.84466115587284 3.0 42.545873736934873 139.83080812850835 3.0 8.6707538533463584 147.79416633111467 3.0 142.21239353967715 149.03679212401204 3.0 175.72209947090167 149.804016245816 3.0 194.94730854388465 147.68530623078138 3.0 19.884727527432165 153.14838015441987 3.0 170.28954579148117 154.19447500485578 3.0 29.770519674234919 153.90416037096878 3.0 161.77862693155743 155.65802927301152 3.0 10.376631918274729 157.22232224953933 3.0 119.84957577542761 157.03912602588642 3.0 41.457848985565015 158.70663979446155 3.0 48.771206916102948 159.76263428912731 3.0 148.22411834272941 160.75844537070986 3.0 94.914847184663088 160.48980230790625 3.0 163.8378455101932 167.09627529571554 3.0 94.118185928656843 172.62383534674328 3.0 193.74002012489282 174.73142999874915 3.0 180.84487296974297 173.71805660806248 3.0 100.7976196124723 175.77546365336266 3.0 149.88628009234694 181.57599678665099 3.0 28.534250794692007 184.28590066638566 3.0 185.1424333628369 188.67713728449303 3.0 191.90701884650682 192.28327099936405 3.0 89.617604853012182 194.87817893055427 3.0 15.345742647561927 195.85412153232483 3.0 187.06596765050799 194.44196962171753 3.0 22.711947023804047 2.460471630538 2 92.16844594661778 7.0669193424665027 2 121.07858295155465 13.011351255579962 2 73.331719105713091 14.393374032053583 2 10.670328641247012 15.641628265063963 2 17.557767432797679 22.138373523495645 2 63.996436291040958 24.963796796915997 2 106.51708105042324 22.906942536720649 2 135.08257949789885 34.392606297113545 2 27.347834604067934 30.01607938224133 2 182.2856810740231 36.507739270525477 2 193.80750213720137 32.24321247440966 2 117.44883044955985 38.119919219445364 2 69.933638070216062 41.003777553799623 2 141.10291402368651 40.132492231964875 2 27.746015188348871 36.459724533113253 2 55.936363409981837 42.636967475855229 2 16.736759767530557 48.326153684646641 2 158.9400055742677 51.075730813183107 2 191.39481038368081 51.523286664102081 2 24.378900906769843 59.301668580748 2 95.943960874481789 58.861902266956562 2 92.103189461573038 55.765124483068455 2 86.851963862037238 62.604776841892345 2 194.63803943626971 66.504924533329969 2 79.586397466664636 69.623248315588683 2 103.54355215809986 72.396984021209306 2 176.54276528576577 69.278624054855044 2 146.38095770953768 72.497852978690133 2 134.08284441002209 83.555479220638844 2 76.59145884914571 91.192206779263401 2 87.612934280703442 88.47691977669021 2 178.54841558678817 91.377976385128292 2 66.484260214439914 91.205127995706192 2 186.38072370452676 96.297621257391427 2 5.691783943144884 93.058018519830128 2 189.02273957277202 100.45402993865025 2 72.732187084354123 110.48241411319042 2 134.3344191044269 110.54110334338154 2 156.81087355126553 108.10319459355517 2 4.1957041834881021 109.24338279540015 2 187.30972037925616 121.22094802815224 2 144.41909451210748 123.27003180319291 2 182.47805624225001 122.15411183675306 2 37.280741358046875 130.84778179884589 2 62.342559593665435 129.00865680160584 2 73.283748688901881 125.30893091632859 2 30.83129154860633 136.65234474767524 2 143.20673022169373 131.53361497445954 2 22.012903917973116 139.41342988332087 2 2.4604716305380001 141.39357221706516 2 35.491890039877099 138.68521378547914 2 192.72396451192918 140.02250476887804 2 44.433576346412508 144.26390186807802 2 9.8458571414034921 143.11715285423261 2 141.32952048939686 144.30009745127569 2 172.72049140198433 146.03491950438701 2 196.00782291586634 152.39000704404444 2 16.20711053400375 156.26139709868582 2 165.67168676114991 152.81867324694394 2 32.973715285742387 157.50373544088256 2 157.51097364609922 153.4210481009608 2 8.9722358522724246 152.60887992668725 2 124.63163527595964 156.44950904935712 2 37.598518465630733 155.8215249076074 2 45.565470039867705 156.1655532049723 2 151.44928708586713 157.17877669554903 2 99.425587848212558 162.18360274238532 2 160.35510671139338 170.4258806334357 2 96.137203274535509 176.99868971572897 2 197.539528369462 171.76815302374953 2 181.18924882462298 178.52407490143895 2 101.21610684916722 180.57563489387726 2 154.51576785135478 182.91150580378138 2 27.67829589825633 189.02765478485767 2 188.70714853224274 185.43544837180448 2 196.45030018336087 190.67879727261311 2 87.050357839399183 190.80080428297336 2 18.065346008819656 191.87674817757477 2 182.63497548127907 196.33459997175225 2 </DataArray>
</Points>
<Cells>
<DataArray Name="connectivity" format="ascii" type="Int32">0</DataArray>
<DataArray Name="offsets" format="ascii" type="Int32">0</DataArray>
<DataArray Name="types" format="ascii" type="UInt8">1</DataArray>
</Cells>
<PointData>
<DataArray Name="Points" NumberOfComponents="3" format="ascii" type="Float32">27.332888282789899 3.8601433258173401 3.0 87.996304228189842 9.4771008142634656 3.0 123.60866374238358 8.9108107500467355 3.0 76.845254202444707 17.690465533616052 3.0 8.4708756838529418 19.928602481670669 3.0 22.090425505594077 20.504129955127116 3.0 61.367571769325849 20.925874983395104 3.0 101.88586409902568 21.577442331858641 3.0 133.65706201620728 29.790037323699661 3.0 23.080220075216356 32.252911252394696 3.0 177.95916665233503 34.387122802475332 3.0 194.06097919744519 37.054812065561279 3.0 112.90748442667659 36.509975883149707 3.0 67.387464899832437 36.913209936456163 3.0 144.91773474882859 37.189214453591497 3.0 29.397235513741979 40.986225685509979 3.0 51.935012306806151 45.34949043217798 3.0 13.133053158106502 45.127866655808596 3.0 155.06866924236445 48.207195254587724 3.0 196.14204680636453 50.69897629004052 3.0 19.929636607147867 57.452401580623459 3.0 100.60555107518995 57.642951524989805 3.0 91.370017598124193 60.528841376050913 3.0 83.096558969946202 65.623497654107169 3.0 189.84754707469119 67.021571588192586 3.0 74.863906143904885 68.667310581162923 3.0 98.908688687465784 71.080427200030599 3.0 175.82806358966297 74.043594435794276 3.0 141.92898505611109 74.340590273798142 3.0 133.97375666637268 78.738442672113834 3.0 74.495859943704417 86.85351959612224 3.0 82.855499849937175 87.713664326267619 3.0 181.8372092766075 87.782764892079356 3.0 62.048165803163002 89.257393368696881 3.0 183.19171639541122 92.678175752750221 3.0 8.7311933786223559 96.796698972766791 3.0 184.04701846614472 100.5712005655614 3.0 71.768058823435283 105.76158813226951 3.0 133.89406319477089 105.74299664193447 3.0 161.01024691166964 110.46560959214634 3.0 3.938005108876089 114.05475811152176 3.0 187.1741299670764 116.40457782707632 3.0 142.55046127167745 118.82886629643681 3.0 185.54599991224856 125.87991951692997 3.0 35.427063631322341 126.39699628844177 3.0 67.158598736836339 128.86200000126595 3.0 74.226893065122368 130.03399387159638 3.0 32.639933807914161 132.17679459293626 3.0 146.88484800222139 134.64604020861483 3.0 20.67913374668586 134.78344085786685 3.0 6.5146445226304248 138.78893660621134 3.0 31.250259301080682 141.45872719235857 3.0 197.539528369462 139.84466115587284 3.0 42.545873736934873 139.83080812850835 3.0 8.6707538533463584 147.79416633111467 3.0 142.21239353967715 149.03679212401204 3.0 175.72209947090167 149.804016245816 3.0 194.94730854388465 147.68530623078138 3.0 19.884727527432165 153.14838015441987 3.0 170.28954579148117 154.19447500485578 3.0 29.770519674234919 153.90416037096878 3.0 161.77862693155743 155.65802927301152 3.0 10.376631918274729 157.22232224953933 3.0 119.84957577542761 157.03912602588642 3.0 41.457848985565015 158.70663979446155 3.0 48.771206916102948 159.76263428912731 3.0 148.22411834272941 160.75844537070986 3.0 94.914847184663088 160.48980230790625 3.0 163.8378455101932 167.09627529571554 3.0 94.118185928656843 172.62383534674328 3.0 193.74002012489282 174.73142999874915 3.0 180.84487296974297 173.71805660806248 3.0 100.7976196124723 175.77546365336266 3.0 149.88628009234694 181.57599678665099 3.0 28.534250794692007 184.28590066638566 3.0 185.1424333628369 188.67713728449303 3.0 191.90701884650682 192.28327099936405 3.0 89.617604853012182 194.87817893055427 3.0 15.345742647561927 195.85412153232483 3.0 187.06596765050799 194.44196962171753 3.0 22.711947023804047 2.460471630538 2 92.16844594661778 7.0669193424665027 2 121.07858295155465 13.011351255579962 2 73.331719105713091 14.393374032053583 2 10.670328641247012 15.641628265063963 2 17.557767432797679 22.138373523495645 2 63.996436291040958 24.963796796915997 2 106.51708105042324 22.906942536720649 2 135.08257949789885 34.392606297113545 2 27.347834604067934 30.01607938224133 2 182.2856810740231 36.507739270525477 2 193.80750213720137 32.24321247440966 2 117.44883044955985 38.119919219445364 2 69.933638070216062 41.003777553799623 2 141.10291402368651 40.132492231964875 2 27.746015188348871 36.459724533113253 2 55.936363409981837 42.636967475855229 2 16.736759767530557 48.326153684646641 2 158.9400055742677 51.075730813183107 2 191.39481038368081 51.523286664102081 2 24.378900906769843 59.301668580748 2 95.943960874481789 58.861902266956562 2 92.103189461573038 55.765124483068455 2 86.851963862037238 62.604776841892345 2 194.63803943626971 66.504924533329969 2 79.586397466664636 69.623248315588683 2 103.54355215809986 72.396984021209306 2 176.54276528576577 69.278624054855044 2 146.38095770953768 72.497852978690133 2 134.08284441002209 83.555479220638844 2 76.59145884914571 91.192206779263401 2 87.612934280703442 88.47691977669021 2 178.54841558678817 91.377976385128292 2 66.484260214439914 91.205127995706192 2 186.38072370452676 96.297621257391427 2 5.691783943144884 93.058018519830128 2 189.02273957277202 100.45402993865025 2 72.732187084354123 110.48241411319042 2 134.3344191044269 110.54110334338154 2 156.81087355126553 108.10319459355517 2 4.1957041834881021 109.24338279540015 2 187.30972037925616 121.22094802815224 2 144.41909451210748 123.27003180319291 2 182.47805624225001 122.15411183675306 2 37.280741358046875 130.84778179884589 2 62.342559593665435 129.00865680160584 2 73.283748688901881 125.30893091632859 2 30.83129154860633 136.65234474767524 2 143.20673022169373 131.53361497445954 2 22.012903917973116 139.41342988332087 2 2.4604716305380001 141.39357221706516 2 35.491890039877099 138.68521378547914 2 192.72396451192918 140.02250476887804 2 44.433576346412508 144.26390186807802 2 9.8458571414034921 143.11715285423261 2 141.32952048939686 144.30009745127569 2 172.72049140198433 146.03491950438701 2 196.00782291586634 152.39000704404444 2 16.20711053400375 156.26139709868582 2 165.67168676114991 152.81867324694394 2 32.973715285742387 157.50373544088256 2 157.51097364609922 153.4210481009608 2 8.9722358522724246 152.60887992668725 2 124.63163527595964 156.44950904935712 2 37.598518465630733 155.8215249076074 2 45.565470039867705 156.1655532049723 2 151.44928708586713 157.17877669554903 2 99.425587848212558 162.18360274238532 2 160.35510671139338 170.4258806334357 2 96.137203274535509 176.99868971572897 2 197.539528369462 171.76815302374953 2 181.18924882462298 178.52407490143895 2 101.21610684916722 180.57563489387726 2 154.51576785135478 182.91150580378138 2 27.67829589825633 189.02765478485767 2 188.70714853224274 185.43544837180448 2 196.45030018336087 190.67879727261311 2 87.050357839399183 190.80080428297336 2 18.065346008819656 191.87674817757477 2 182.63497548127907 196.33459997175225 2 </DataArray>
<DataArray Name="forces" NumberOfComponents="3" format="ascii" type="Float32">0.009122983360417428 0.0027633200873281309 0.0 0.0 0.0 0.0 0.0 0.0 0.0 0.0 0.0 0.0 0.0 0.0 0.0 0.0 0.0 0.0 0.0 0.0 0.0 0.0 0.0 0.0 0.0 0.0 0.0 0.0 0.0 0.0 0.0 0.0 0.0 0.0 0.0 0.0 0.0 0.0 0.0 0.0 0.0 0.0 0.0 0.0 0.0 0.0 0.0 0.0 0.0 0.0 0.0 0.0 0.0 0.0 0.0 0.0 0.0 0.0 0.0 0.0 0.0 0.0 0.0 0.0 0.0 0.0 -0.00089621760671005398 -0.00021282411764463939 0.0 0.0 0.0 0.0 0.0 0.0 0.0 0.0 0.0 0.0 -3.8999645712849655e-05 0.00036128071656070184 0.0 0.0 0.0 0.0 0.0 0.0 0.0 0.0 0.0 0.0 0.0 0.0 0.0 0.0 0.0 0.0 0.0 0.0 0.0 0.0 0.0 0.0 -0.00021728833467657112 -0.003483080001942071 0.0 0.0 0.0 0.0 0.0 0.0 0.0 0.0 0.0 0.0 0.0 0.0 0.0 0.0 0.0 0.0 0.0 0.0 0.0 0.0 0.0 0.0 0.0 0.0 0.0 0.0 0.0 0.0 -0.0011780972424476207 -0.0028435931554199388 0.0 0.0 0.0 0.0 0.0 0.0 0.0 -0.0053477106192744012 -0.0057083306021249031 0.0 0.0 0.0 0.0 0.0 0.0 0.0 0.0 0.0 0.0 0.00053114310116893465 0.0062608945375355321 0.0 0.00033529443209283485 -1.2380371282395616e-05 0.0 0.0 0.0 0.0 -0.0018801711567301531 -0.0025897578969343166 0.0 0.0 0.0 0.0 0.0 0.0 0.0 0.0 0.0 0.0 0.0 0.0 0.0 0.0 0.0 0.0 0.0 0.0 0.0 0.0 0.0 0.0 0.0016815560137662582 0.0055452496132229355 0.0 0.0 0.0 0.0 0.0 0.0 0.0 0.0 0.0 0.0 0.0 0.0 0.0 0.0 0.0 0.0 0.0 0.0 0.0 0.0 0.0 0.0 0.0 0.0 0.0 -2.612267334463711e-06 -3.639505236701803e-05 0.0 0.0 0.0 0.0 0.0 0.0 0.0 0.0 0.0 0.0 0.0 0.0 0.0 0.0 0.0 0.0 0.0 0.0 0.0 0.0 0.0 0.0 0.0 0.0 0.0 0.0022351949610906249 -0.012534437543940858 0.0 0.0 0.0 0.0 0.0 0.0 0.0 0.0 0.0 0.0 0.0 0.0 0.0 0.0 0.0 0.0 0.0 0.0 0.0 0.0 0.0 0.0 0.0 0.0 0.0 0.0 0.0 0.0 0.0 0.0 0.0 0.0 0.0 0.0 0.0 0.0 0.0 0.0 0.0 0.0 0.0 0.0 0.0 0.0 0.0 0.0 0.0 0.0 0.0 0.0 0.0 0.0 0.0 0.0 0.0 0.0 0.0 0.0 0.0 0.0 0.0 0.0 0.0 0.0 0.00015325104444030547 -0.00099924317454988813 0.0 0.0 0.0 0.0 0.0 0.0 0.0 0.0 0.0 0.0 7.1277581573749447e-05 2.0262634860471658e-05 0.0 0.0 0.0 0.0 0.0 0.0 0.0 0.0 0.0 0.0 0.0 0.0 0.0 0.0 0.0 0.0 -0.0038034444719944869 -0.0010727942025443599 0.0 7.1632879795061925e-05 -9.5083719525887952e-05 0.0 0.0015711481228307274 0.0007067254458873423 0.0 0.0 0.0 0.0 0.0024495846838403306 0.0038491487585990886 0.0 0.0 0.0 0.0 0.0 0.0 0.0 0.0 0.0 0.0 0.0 0.0 0.0 0.0 0.0 0.0 0.0 0.0 0.0 0.0 0.0 0.0 0.0026870755108532847 -0.0019816141591329794 0.0 0.0 0.0 0.0 0.0 0.0 0.0 -0.0038806014229404513 0.0019695493422728387 0.0 0.0 0.0 0.0 0.0 0.0 0.0 0.0 0.0 0.0 0.0 0.0 0.0 -0.00033529443209283485 1.2380371282395616e-05 0.0 0.0 0.0 0.0 0.0013750488614853369 -0.0055056274168157268 0.0 0.0 0.0 0.0 0.0 0.0 0.0 0.0 0.0 0.0 0.0 0.0 0.0 0.0 0.0 0.0 0.0 0.0 0.0 0.0 0.0 0.0 -0.0011764337185214417 0.0025501357005271079 0.0 0.0 0.0 0.0 0.0 0.0 0.0 0.0 0.0 0.0 0.0 0.0 0.0 0.0 0.0 0.0 0.0 0.0 0.0 0.0 0.0 0.0 0.0 0.0 0.0 -0.00020708207008424107 1.9213709416651482e-05 0.0 0.0 0.0 0.0 0.0 0.0 0.0 0.0 0.0 0.0 0.0 0.0 0.0 0.0 0.0 0.0 0.0 0.0 0.0 0.0 0.0 0.0 0.0 0.0 0.0 </DataArray>
<DataArray Name="radii" format="ascii" type="Float32">2.460471630538 2.460471630538 2.460471630538 2.460471630538 2.460471630538 2.460471630538 2.460471630538 2.460471630538 2.460471630538 2.460471630538 2.460471630538 2.460471630538 2.460471630538 2.460471630538 2.460471630538 2.460471630538 2.460471630538 2.460471630538 2.460471630538 2.460471630538 2.460471630538 2.460471630538 2.460471630538 2.460471630538 2.460471630538 2.460471630538 2.460471630538 2.460471630538 2.460471630538 2.460471630538 2.460471630538 2.460471630538 2.460471630538 2.460471630538 2.460471630538 2.460471630538 2.460471630538 2.460471630538 2.460471630538 2.460471630538 2.460471630538 2.460471630538 2.460471630538 2.460471630538 2.460471630538 2.460471630538 2.460471630538 2.460471630538 2.460471630538 2.460471630538 2.460471630538 2.460471630538 2.460471630538 2.460471630538 2.460471630538 2.460471630538 2.460471630538 2.460471630538 2.460471630538 2.460471630538 2.460471630538 2.460471630538 2.460471630538 2.460471630538 2.460471630538 2.460471630538 2.460471630538 2.460471630538 2.460471630538 2.460471630538 2.460471630538 2.460471630538 2.460471630538 2.460471630538 2.460471630538 2.460471630538 2.460471630538 2.460471630538 2.460471630538 2.460471630538 2.460471630538 2.460471630538 2.460471630538 2.460471630538 2.460471630538 2.460471630538 2.460471630538 2.460471630538 2.460471630538 2.460471630538 2.460471630538 2.460471630538 2.460471630538 2.460471630538 2.460471630538 2.460471630538 2.460471630538 2.460471630538 2.460471630538 2.460471630538 2.460471630538 2.460471630538 2.460471630538 2.460471630538 2.460471630538 2.460471630538 2.460471630538 2.460471630538 2.460471630538 2.460471630538 2.460471630538 2.460471630538 2.460471630538 2.460471630538 2.460471630538 2.460471630538 2.460471630538 2.460471630538 2.460471630538 2.460471630538 2.460471630538 2.460471630538 2.460471630538 2.460471630538 2.460471630538 2.460471630538 2.460471630538 2.460471630538 2.460471630538 2.460471630538 2.460471630538 2.460471630538 2.460471630538 2.460471630538 2.460471630538 2.460471630538 2.460471630538 2.460471630538 2.460471630538 2.460471630538 2.460471630538 2.460471630538 2.460471630538 2.460471630538 2.460471630538 2.460471630538 2.460471630538 2.460471630538 2.460471630538 2.460471630538 2.460471630538 2.460471630538 2.460471630538 2.460471630538 2.460471630538 2.460471630538 2.460471630538 2.460471630538 2.460471630538 2.460471630538 </DataArray>
</PointData>
<CellData/>
</Piece>
</UnstructuredGrid>
</VTKFile>
