<?xml version="1.0" ?>
<VTKFile byte_order="LittleEndian" type="UnstructuredGrid" version="0.1">
<UnstructuredGrid>
<Piece NumberOfCells="0" NumberOfPoints="297">
<Points>
<DataArray NumberOfComponents="3" format="ascii" type="Float32">33.256308880611826 3.0290979429048797 3.0 85.287580157307019 7.6008801631587763 3.0 125.90700217830567 8.4928285610161058 3.0 79.906199958756744 19.21976979057531 3.0 8.4094700937843037 22.195858918934782 3.0 20.544058711604389 19.39270784272291 3.0 61.361684579079792 18.829877368839814 3.0 101.44459910650617 22.647484718502785 3.0 134.35764652549173 27.079547249555127 3.0 23.779727867262896 31.772875021020944 3.0 178.40027456725556 32.247107362719021 3.0 195.93880231909537 38.73579247408216 3.0 113.3772554256216 38.405476053667897 3.0 66.021405344522321 32.927281572683853 3.0 145.67562987329597 34.546260854677627 3.0 29.969414514971202 44.064827619188172 3.0 50.310596538552872 47.312772872300776 3.0 13.361219285612348 45.463320984289886 3.0 154.03554070034684 45.383824115365073 3.0 196.34037750117568 51.810176817409911 3.0 19.801170605284849 55.213817152796359 3.0 104.36495088546182 53.962307158236946 3.0 92.485423073735419 58.018894443954899 3.0 81.864830915786598 66.273986895097153 3.0 186.98640078866404 66.23565844240504 3.0 71.682972826649475 67.469698175735829 3.0 98.937140383954613 73.328369040766248 3.0 175.39001436794794 72.618861018002704 3.0 142.90053042484493 77.370435080320618 3.0 135.15733033972447 79.182267344196958 3.0 71.367751051431952 82.298793631782402 3.0 83.864474982753791 84.868350790101459 3.0 59.660143347601569 89.400467785713857 3.0 183.75195769120171 88.737254523751119 3.0 8.5677102666966913 99.210745570305974 3.0 183.13027978341825 104.33990928141748 3.0 73.22765427044753 103.84303096965962 3.0 132.74974997720318 101.87891279144203 3.0 160.11218225038235 110.25299801884991 3.0 3.0290979429048797 113.59907820742116 3.0 185.49504191411205 112.98177473343419 3.0 141.12503106773255 114.96695769614549 3.0 182.8631432443207 127.76734612389117 3.0 34.490900295182833 119.38340778534794 3.0 67.150544963954673 126.78050378795272 3.0 73.598233501361165 131.31064744114303 3.0 26.984976679935485 128.62951045152917 3.0 147.6516657171174 134.04084443972377 3.0 18.7015668987198 130.88215445420954 3.0 3.4465907506107745 133.28328506937439 3.0 196.97090205709512 136.23926902881456 3.0 7.6378566455982595 148.92217630350473 3.0 143.97323352317829 151.76703647829723 3.0 178.22053234503329 148.76176637329601 3.0 21.200217467588168 154.30755792608716 3.0 169.70647777776622 153.62951682533924 3.0 31.185628330174652 152.32111116267544 3.0 159.9409673441931 158.26563493185702 3.0 11.530748387704353 160.02772918466965 3.0 117.83282363291158 154.29123153251797 3.0 40.982271073570821 163.3684558479388 3.0 51.360530539619738 160.71844768899243 3.0 149.90099177852693 162.11450298825108 3.0 92.15534793214438 158.54624075935041 3.0 166.05144064550964 166.51290805802472 3.0 94.702618864585645 170.37006269063184 3.0 180.26541446460956 170.41088627174975 3.0 100.18280278763356 174.09580879430931 3.0 147.25625424472884 181.38632477798913 3.0 185.30623205347169 185.53122481524773 3.0 194.20960156980553 194.4651115742727 3.0 91.811003053869854 196.57016437744372 3.0 15.950206728853171 196.94059156139662 3.0 188.70457985994923 196.96296394170545 3.0 93.638412770258057 4.5046041302517947 2 121.3510325785 12.358689201599107 2 73.655067618306035 9.2887257144498179 2 9.4751098480413098 13.60569166649671 2 15.769693828632455 23.65690825910832 2 63.763306273930837 24.081867101025598 2 106.65485293800013 24.613682215564669 2 133.95607405173934 36.553366837632481 2 28.797728670123462 28.939837057370127 2 183.82110273527948 34.760344192863037 2 195.27943216340051 31.052503519347017 2 119.27464739931757 39.338162177791382 2 73.428149007498902 42.029037965195144 2 139.80617727742907 38.263420340138502 2 28.267917623913938 34.696531742932699 2 58.012349287357203 39.596476487169092 2 19.094125693097478 48.262959437855308 2 160.50410579482221 52.868205929486535 2 189.63965066546103 53.281826360927148 2 25.389053265625982 57.329781416497738 2 99.764003410213633 57.45833430374649 2 90.037923287926262 51.06723114708381 2 80.874892037924056 59.735262258034076 2 196.97090205709512 65.647100954770366 2 79.089997798263781 71.565424198131794 2 106.8555382584442 74.758489291844143 2 174.68377102667952 66.686552199950683 2 149.27928055953504 73.171504128333154 2 135.50263506299558 85.14742405376083 2 74.918928431022593 91.840274202730839 2 90.115524291981515 86.63338434999568 2 175.50352500773161 94.103216021133306 2 69.089030054811786 87.822323769731454 2 189.08605730166926 93.863988746795584 2 3.6081151954366311 94.176171117051922 2 192.75394733864221 105.38893835444404 2 74.346355568063032 109.71246405974458 2 135.41327769682943 113.21432982689321 2 154.52670976497888 108.13067981360345 2 6.8518418759363904 109.00687108940359 2 192.05220291753821 121.22092834463139 2 147.58173690391078 122.84898457336898 2 180.74140277242589 120.86127258994811 2 62.259979918131492 130.21306289919696 2 72.013070861684767 123.30811797941716 2 29.939667702539037 133.80238066764636 2 141.50937508111463 133.21301275528862 2 22.663644808859186 139.6494144758239 2 3.0290979429048797 145.26192211215141 2 35.738917395049 141.23999681393934 2 190.80199200657802 136.31152349003582 2 14.089458525843673 140.48029148122762 2 141.81363276627147 140.49770195607201 2 172.32810660568273 142.20503151349811 2 17.323475074305026 158.88679804689514 2 166.82495522339747 148.39180337208117 2 29.786305210153913 161.74177879983094 2 157.40257322992801 152.7219371827567 2 9.9001663343438739 154.39295236015559 2 123.39628204750844 154.05223170928289 2 48.506145985246548 154.47277647886366 2 153.28375528822065 157.16263239760079 2 101.56287337899363 163.06247301661347 2 158.00085000908118 170.28196504961423 2 94.744683883050072 176.57131297332629 2 197.17090205709513 167.71935685963331 2 176.35228578486326 181.26578070110128 2 103.26176814465771 179.21677150992841 2 154.20466208641332 184.59171478870743 2 191.28733297838065 185.39144964153215 2 196.97090205709512 189.1691131995475 2 88.349844404820132 187.64779000922871 2 16.287805293899229 190.97498899151921 2 176.71927393073659 196.24039837037608 2 28.511560058518405 5.4930200376514611 2 83.86970730101946 13.406775026642949 2 122.45101826915496 3.6186196386375848 2 76.218833597677531 14.77773916602027 2 4.93729856416841 17.303373705553 2 25.520489075716171 22.799434184483523 2 55.387527903388758 18.935646427640986 2 105.39091252489681 18.654381995883039 2 130.44357677457751 31.594167430263273 2 20.949512679357472 26.766607800873235 2 174.10970545881867 36.40556309981163 2 190.94525633971796 35.454598187392968 2 110.60072810230011 31.964448503303203 2 68.65112265082341 38.292505550969118 2 145.43362010411471 40.516450856991 2 33.657010914146227 39.540497718571409 2 10.303883011546347 40.329853176150237 2 154.64503305951152 51.32775012896542 2 196.97090205709512 45.767548792498097 2 18.785712426081446 61.215339533747979 2 106.1684887249462 59.451669095917296 2 86.925436772733804 59.559555105293065 2 76.414426821241577 63.828404681070815 2 192.16590468427847 69.301614087789474 2 73.265129733947887 73.229658437327231 2 93.365800477366179 70.762238389919432 2 140.31326737047513 72.21071640760249 2 133.37487032725667 73.908216696705196 2 76.252562644185488 85.749203615031178 2 80.661888514046453 89.912753635091534 2 187.52372332057772 84.12922095212646 2 63.538174241621455 85.395404061965394 2 181.55657761704134 94.295508999456359 2 11.358477949210089 93.927675841735947 2 179.17824468223262 99.857977892150132 2 67.619867510845623 105.90761281421746 2 135.54913485439232 107.15765961967092 2 165.94852478571534 111.53317115549243 2 7.1359584851223454 117.93905906902481 2 191.21889398461443 115.12146482295341 2 146.79779613555323 116.84235004729929 2 188.63771463681076 126.23239901486546 2 31.128129207251984 124.31688584803244 2 67.791957456558492 132.7210467693549 2 78.934871910332845 128.62326684668511 2 34.198503455912828 129.56621380110721 2 147.85232492675976 140.01167197436578 2 23.9074072663553 133.72888445493942 2 8.913034573921939 136.83811804290309 2 26.183635682656597 144.54916939989761 2 196.51829012497129 142.18470053530544 2 41.428900192174957 136.92589808061243 2 13.185010269695608 146.72100943752673 2 141.12234582088857 146.51485412210442 2 196.97090205709512 148.22870876474752 2 25.699717144775498 150.59409715183011 2 171.90194797826524 159.60079943097151 2 26.695639951892847 156.50892096703089 2 165.88074083357685 158.93949298659936 2 5.7084006305463841 161.48110372629651 2 120.94694619095259 158.73115974845734 2 45.760559151923225 159.41549474623028 2 47.686417512515398 165.15300431537483 2 143.71332641520866 162.07554690327652 2 95.499801451692903 163.69124773039621 2 160.35769218301598 164.70101241066706 2 89.382547121477771 173.7520403305424 2 105.79151601388101 172.03579232362799 2 152.61601046478191 178.74534945577531 2 30.400732186063617 180.71355498910319 2 178.27370354135539 186.98559835098584 2 188.92091228595575 190.97805563802729 2 86.697786466271282 193.47876444148287 2 10.859217287285029 193.8112296406315 2 182.84311116851808 190.97845891790172 2 90.816923794441863 9.8652971300447412 2 117.21736313133539 16.787516855204792 2 69.086651956686623 13.267592027176358 2 16.20812172088284 13.704376715870659 2 12.943125042443832 18.321582622922918 2 61.226507061025039 29.362073695461202 2 112.01148645823378 21.783756813132509 2 137.90865132401075 31.962193779012527 2 33.049215848967968 24.632154895360813 2 181.43820096979144 40.330220005386678 2 189.35759517156353 29.608140335827073 2 116.85619823376913 33.54610388613515 2 67.809121530154428 44.293713203900637 2 140.67212342727714 44.262099904688107 2 33.698342063532472 33.12642463870349 2 14.360744771524526 51.332526871367079 2 159.82928129473754 46.847231727587825 2 191.14028373440149 47.412427941600164 2 24.45916894319571 63.34001945486208 2 95.708864167123892 53.231378898925414 2 87.616185690964869 67.890933106862363 2 191.73575497754484 62.61243343045232 2 84.893624403050197 73.301460096607926 2 103.97833205383154 69.427042915403106 2 180.65727011876118 67.694416215598736 2 145.10968158933741 68.776475971130338 2 129.96811516667327 82.179308648696832 2 79.659276917351676 95.901828183237242 2 86.508374997708643 91.500592367489347 2 177.97636459833862 88.79672074572558 2 69.214349135296473 93.878887836440981 2 185.526066874793 98.865922910823159 2 7.3340731094819818 89.400628877112624 2 191.55591852476627 99.450701800685437 2 69.483829184379474 113.32599066960431 2 130.06777937172683 110.36407709925535 2 159.37873555760558 104.31764709405074 2 3.0290979429048797 104.30704489966683 2 186.46559900979335 118.87751507705761 2 141.69534125601254 120.91434701568606 2 176.43823366352717 125.12559659921 2 37.542051697523419 124.49835739777812 2 57.114599790833431 127.01512279332532 2 78.033295373486965 122.63253983921368 2 29.972775960777316 139.86688908789068 2 145.41038354227871 128.50361259669981 2 18.782991756059513 144.28830311027849 2 3.0290979429048797 139.23615852327208 2 35.76817079954435 135.40569701987411 2 190.32596869946349 141.95090013433858 2 8.5123895748594407 142.87400700647552 2 136.16713143693161 143.03262054055119 2 172.88013729967994 148.23795019153681 2 196.97090205709512 157.2061680313316 2 15.550716204936652 152.27013233900021 2 163.42184185633903 153.4033522535793 2 33.966192434806587 157.35749799303278 2 154.62227152746809 147.33973133842079 2 3.8263179164543457 154.2922898853916 2 127.54733826479979 157.28108833543669 2 40.008418234497093 157.4527952181484 2 43.372522667982551 152.62423861740507 2 147.2362832036676 156.7643996885823 2 97.92473666597968 158.35875623353181 2 163.68753052873484 172.37084085478327 2 97.765627849214056 181.82252975178343 2 196.97090205709512 173.58131083984813 2 175.57799852752092 175.250060876189 2 103.16351057045978 185.27417120997171 2 159.72519497043731 182.0966288047631 2 196.97090205709512 183.13704262794573 2 82.45643742258487 189.15294709396267 2 18.939420498316952 185.97745743038246 2 182.7326806330851 196.97090205709512 2 </DataArray>
</Points>
<Cells>
<DataArray Name="connectivity" format="ascii" type="Int32">0</DataArray>
<DataArray Name="offsets" format="ascii" type="Int32">0</DataArray>
<DataArray Name="types" format="ascii" type="UInt8">1</DataArray>
</Cells>
<PointData>
<DataArray Name="Points" NumberOfComponents="3" format="ascii" type="Float32">33.256308880611826 3.0290979429048797 3.0 85.287580157307019 7.6008801631587763 3.0 125.90700217830567 8.4928285610161058 3.0 79.906199958756744 19.21976979057531 3.0 8.4094700937843037 22.195858918934782 3.0 20.544058711604389 19.39270784272291 3.0 61.361684579079792 18.829877368839814 3.0 101.44459910650617 22.647484718502785 3.0 134.35764652549173 27.079547249555127 3.0 23.779727867262896 31.772875021020944 3.0 178.40027456725556 32.247107362719021 3.0 195.93880231909537 38.73579247408216 3.0 113.3772554256216 38.405476053667897 3.0 66.021405344522321 32.927281572683853 3.0 145.67562987329597 34.546260854677627 3.0 29.969414514971202 44.064827619188172 3.0 50.310596538552872 47.312772872300776 3.0 13.361219285612348 45.463320984289886 3.0 154.03554070034684 45.383824115365073 3.0 196.34037750117568 51.810176817409911 3.0 19.801170605284849 55.213817152796359 3.0 104.36495088546182 53.962307158236946 3.0 92.485423073735419 58.018894443954899 3.0 81.864830915786598 66.273986895097153 3.0 186.98640078866404 66.23565844240504 3.0 71.682972826649475 67.469698175735829 3.0 98.937140383954613 73.328369040766248 3.0 175.39001436794794 72.618861018002704 3.0 142.90053042484493 77.370435080320618 3.0 135.15733033972447 79.182267344196958 3.0 71.367751051431952 82.298793631782402 3.0 83.864474982753791 84.868350790101459 3.0 59.660143347601569 89.400467785713857 3.0 183.75195769120171 88.737254523751119 3.0 8.5677102666966913 99.210745570305974 3.0 183.13027978341825 104.33990928141748 3.0 73.22765427044753 103.84303096965962 3.0 132.74974997720318 101.87891279144203 3.0 160.11218225038235 110.25299801884991 3.0 3.0290979429048797 113.59907820742116 3.0 185.49504191411205 112.98177473343419 3.0 141.12503106773255 114.96695769614549 3.0 182.8631432443207 127.76734612389117 3.0 34.490900295182833 119.38340778534794 3.0 67.150544963954673 126.78050378795272 3.0 73.598233501361165 131.31064744114303 3.0 26.984976679935485 128.62951045152917 3.0 147.6516657171174 134.04084443972377 3.0 18.7015668987198 130.88215445420954 3.0 3.4465907506107745 133.28328506937439 3.0 196.97090205709512 136.23926902881456 3.0 7.6378566455982595 148.92217630350473 3.0 143.97323352317829 151.76703647829723 3.0 178.22053234503329 148.76176637329601 3.0 21.200217467588168 154.30755792608716 3.0 169.70647777776622 153.62951682533924 3.0 31.185628330174652 152.32111116267544 3.0 159.9409673441931 158.26563493185702 3.0 11.530748387704353 160.02772918466965 3.0 117.83282363291158 154.29123153251797 3.0 40.982271073570821 163.3684558479388 3.0 51.360530539619738 160.71844768899243 3.0 149.90099177852693 162.11450298825108 3.0 92.15534793214438 158.54624075935041 3.0 166.05144064550964 166.51290805802472 3.0 94.702618864585645 170.37006269063184 3.0 180.26541446460956 170.41088627174975 3.0 100.18280278763356 174.09580879430931 3.0 147.25625424472884 181.38632477798913 3.0 185.30623205347169 185.53122481524773 3.0 194.20960156980553 194.4651115742727 3.0 91.811003053869854 196.57016437744372 3.0 15.950206728853171 196.94059156139662 3.0 188.70457985994923 196.96296394170545 3.0 93.638412770258057 4.5046041302517947 2 121.3510325785 12.358689201599107 2 73.655067618306035 9.2887257144498179 2 9.4751098480413098 13.60569166649671 2 15.769693828632455 23.65690825910832 2 63.763306273930837 24.081867101025598 2 106.65485293800013 24.613682215564669 2 133.95607405173934 36.553366837632481 2 28.797728670123462 28.939837057370127 2 183.82110273527948 34.760344192863037 2 195.27943216340051 31.052503519347017 2 119.27464739931757 39.338162177791382 2 73.428149007498902 42.029037965195144 2 139.80617727742907 38.263420340138502 2 28.267917623913938 34.696531742932699 2 58.012349287357203 39.596476487169092 2 19.094125693097478 48.262959437855308 2 160.50410579482221 52.868205929486535 2 189.63965066546103 53.281826360927148 2 25.389053265625982 57.329781416497738 2 99.764003410213633 57.45833430374649 2 90.037923287926262 51.06723114708381 2 80.874892037924056 59.735262258034076 2 196.97090205709512 65.647100954770366 2 79.089997798263781 71.565424198131794 2 106.8555382584442 74.758489291844143 2 174.68377102667952 66.686552199950683 2 149.27928055953504 73.171504128333154 2 135.50263506299558 85.14742405376083 2 74.918928431022593 91.840274202730839 2 90.115524291981515 86.63338434999568 2 175.50352500773161 94.103216021133306 2 69.089030054811786 87.822323769731454 2 189.08605730166926 93.863988746795584 2 3.6081151954366311 94.176171117051922 2 192.75394733864221 105.38893835444404 2 74.346355568063032 109.71246405974458 2 135.41327769682943 113.21432982689321 2 154.52670976497888 108.13067981360345 2 6.8518418759363904 109.00687108940359 2 192.05220291753821 121.22092834463139 2 147.58173690391078 122.84898457336898 2 180.74140277242589 120.86127258994811 2 62.259979918131492 130.21306289919696 2 72.013070861684767 123.30811797941716 2 29.939667702539037 133.80238066764636 2 141.50937508111463 133.21301275528862 2 22.663644808859186 139.6494144758239 2 3.0290979429048797 145.26192211215141 2 35.738917395049 141.23999681393934 2 190.80199200657802 136.31152349003582 2 14.089458525843673 140.48029148122762 2 141.81363276627147 140.49770195607201 2 172.32810660568273 142.20503151349811 2 17.323475074305026 158.88679804689514 2 166.82495522339747 148.39180337208117 2 29.786305210153913 161.74177879983094 2 157.40257322992801 152.7219371827567 2 9.9001663343438739 154.39295236015559 2 123.39628204750844 154.05223170928289 2 48.506145985246548 154.47277647886366 2 153.28375528822065 157.16263239760079 2 101.56287337899363 163.06247301661347 2 158.00085000908118 170.28196504961423 2 94.744683883050072 176.57131297332629 2 197.17090205709513 167.71935685963331 2 176.35228578486326 181.26578070110128 2 103.26176814465771 179.21677150992841 2 154.20466208641332 184.59171478870743 2 191.28733297838065 185.39144964153215 2 196.97090205709512 189.1691131995475 2 88.349844404820132 187.64779000922871 2 16.287805293899229 190.97498899151921 2 176.71927393073659 196.24039837037608 2 28.511560058518405 5.4930200376514611 2 83.86970730101946 13.406775026642949 2 122.45101826915496 3.6186196386375848 2 76.218833597677531 14.77773916602027 2 4.93729856416841 17.303373705553 2 25.520489075716171 22.799434184483523 2 55.387527903388758 18.935646427640986 2 105.39091252489681 18.654381995883039 2 130.44357677457751 31.594167430263273 2 20.949512679357472 26.766607800873235 2 174.10970545881867 36.40556309981163 2 190.94525633971796 35.454598187392968 2 110.60072810230011 31.964448503303203 2 68.65112265082341 38.292505550969118 2 145.43362010411471 40.516450856991 2 33.657010914146227 39.540497718571409 2 10.303883011546347 40.329853176150237 2 154.64503305951152 51.32775012896542 2 196.97090205709512 45.767548792498097 2 18.785712426081446 61.215339533747979 2 106.1684887249462 59.451669095917296 2 86.925436772733804 59.559555105293065 2 76.414426821241577 63.828404681070815 2 192.16590468427847 69.301614087789474 2 73.265129733947887 73.229658437327231 2 93.365800477366179 70.762238389919432 2 140.31326737047513 72.21071640760249 2 133.37487032725667 73.908216696705196 2 76.252562644185488 85.749203615031178 2 80.661888514046453 89.912753635091534 2 187.52372332057772 84.12922095212646 2 63.538174241621455 85.395404061965394 2 181.55657761704134 94.295508999456359 2 11.358477949210089 93.927675841735947 2 179.17824468223262 99.857977892150132 2 67.619867510845623 105.90761281421746 2 135.54913485439232 107.15765961967092 2 165.94852478571534 111.53317115549243 2 7.1359584851223454 117.93905906902481 2 191.21889398461443 115.12146482295341 2 146.79779613555323 116.84235004729929 2 188.63771463681076 126.23239901486546 2 31.128129207251984 124.31688584803244 2 67.791957456558492 132.7210467693549 2 78.934871910332845 128.62326684668511 2 34.198503455912828 129.56621380110721 2 147.85232492675976 140.01167197436578 2 23.9074072663553 133.72888445493942 2 8.913034573921939 136.83811804290309 2 26.183635682656597 144.54916939989761 2 196.51829012497129 142.18470053530544 2 41.428900192174957 136.92589808061243 2 13.185010269695608 146.72100943752673 2 141.12234582088857 146.51485412210442 2 196.97090205709512 148.22870876474752 2 25.699717144775498 150.59409715183011 2 171.90194797826524 159.60079943097151 2 26.695639951892847 156.50892096703089 2 165.88074083357685 158.93949298659936 2 5.7084006305463841 161.48110372629651 2 120.94694619095259 158.73115974845734 2 45.760559151923225 159.41549474623028 2 47.686417512515398 165.15300431537483 2 143.71332641520866 162.07554690327652 2 95.499801451692903 163.69124773039621 2 160.35769218301598 164.70101241066706 2 89.382547121477771 173.7520403305424 2 105.79151601388101 172.03579232362799 2 152.61601046478191 178.74534945577531 2 30.400732186063617 180.71355498910319 2 178.27370354135539 186.98559835098584 2 188.92091228595575 190.97805563802729 2 86.697786466271282 193.47876444148287 2 10.859217287285029 193.8112296406315 2 182.84311116851808 190.97845891790172 2 90.816923794441863 9.8652971300447412 2 117.21736313133539 16.787516855204792 2 69.086651956686623 13.267592027176358 2 16.20812172088284 13.704376715870659 2 12.943125042443832 18.321582622922918 2 61.226507061025039 29.362073695461202 2 112.01148645823378 21.783756813132509 2 137.90865132401075 31.962193779012527 2 33.049215848967968 24.632154895360813 2 181.43820096979144 40.330220005386678 2 189.35759517156353 29.608140335827073 2 116.85619823376913 33.54610388613515 2 67.809121530154428 44.293713203900637 2 140.67212342727714 44.262099904688107 2 33.698342063532472 33.12642463870349 2 14.360744771524526 51.332526871367079 2 159.82928129473754 46.847231727587825 2 191.14028373440149 47.412427941600164 2 24.45916894319571 63.34001945486208 2 95.708864167123892 53.231378898925414 2 87.616185690964869 67.890933106862363 2 191.73575497754484 62.61243343045232 2 84.893624403050197 73.301460096607926 2 103.97833205383154 69.427042915403106 2 180.65727011876118 67.694416215598736 2 145.10968158933741 68.776475971130338 2 129.96811516667327 82.179308648696832 2 79.659276917351676 95.901828183237242 2 86.508374997708643 91.500592367489347 2 177.97636459833862 88.79672074572558 2 69.214349135296473 93.878887836440981 2 185.526066874793 98.865922910823159 2 7.3340731094819818 89.400628877112624 2 191.55591852476627 99.450701800685437 2 69.483829184379474 113.32599066960431 2 130.06777937172683 110.36407709925535 2 159.37873555760558 104.31764709405074 2 3.0290979429048797 104.30704489966683 2 186.46559900979335 118.87751507705761 2 141.69534125601254 120.91434701568606 2 176.43823366352717 125.12559659921 2 37.542051697523419 124.49835739777812 2 57.114599790833431 127.01512279332532 2 78.033295373486965 122.63253983921368 2 29.972775960777316 139.86688908789068 2 145.41038354227871 128.50361259669981 2 18.782991756059513 144.28830311027849 2 3.0290979429048797 139.23615852327208 2 35.76817079954435 135.40569701987411 2 190.32596869946349 141.95090013433858 2 8.5123895748594407 142.87400700647552 2 136.16713143693161 143.03262054055119 2 172.88013729967994 148.23795019153681 2 196.97090205709512 157.2061680313316 2 15.550716204936652 152.27013233900021 2 163.42184185633903 153.4033522535793 2 33.966192434806587 157.35749799303278 2 154.62227152746809 147.33973133842079 2 3.8263179164543457 154.2922898853916 2 127.54733826479979 157.28108833543669 2 40.008418234497093 157.4527952181484 2 43.372522667982551 152.62423861740507 2 147.2362832036676 156.7643996885823 2 97.92473666597968 158.35875623353181 2 163.68753052873484 172.37084085478327 2 97.765627849214056 181.82252975178343 2 196.97090205709512 173.58131083984813 2 175.57799852752092 175.250060876189 2 103.16351057045978 185.27417120997171 2 159.72519497043731 182.0966288047631 2 196.97090205709512 183.13704262794573 2 82.45643742258487 189.15294709396267 2 18.939420498316952 185.97745743038246 2 182.7326806330851 196.97090205709512 2 </DataArray>