<?xml version="1.0" ?>
<VTKFile byte_order="LittleEndian" type="UnstructuredGrid" version="0.1">
<UnstructuredGrid>
<Piece NumberOfCells="0" NumberOfPoints="314">
<Points>
<DataArray NumberOfComponents="3" format="ascii" type="Float32">29.971846904174821 2.429097942904879 3.0 86.391151578605104 8.8106432804679891 3.0 124.53810549508867 9.056522550127065 3.0 79.075311255509121 18.784521259572035 3.0 8.5974564072172637 21.490867690845466 3.0 22.412271645521685 18.800073415659281 3.0 62.067493186288246 20.181350453897462 3.0 101.03156846173263 22.042643648790289 3.0 134.21389376917983 28.150418151686701 3.0 23.435604988660049 31.678561964401094 3.0 178.27408982837116 33.189209874088903 3.0 195.15791484204084 38.454531300385909 3.0 112.12269413621658 37.368755211153406 3.0 66.223216232287569 34.409990548362302 3.0 145.61815875323961 35.464945338225029 3.0 29.008474529067328 42.390739666829262 3.0 50.844822086383935 46.896517730863152 3.0 13.100654019793257 45.56198991467042 3.0 154.26455767233071 46.430245805383258 3.0 196.38318803320493 51.67256870503077 3.0 19.81994039391196 55.982116959721331 3.0 102.83340039579336 55.46511656741162 3.0 91.605380174133828 58.801708805621139 3.0 82.429256258314368 66.265292565808736 3.0 187.95160971373195 66.526379246153212 3.0 73.181995936654246 66.630853578337835 3.0 98.529597190249362 72.623236260068552 3.0 175.66670812040942 72.87523103138858 3.0 142.20602837964125 76.25182771360916 3.0 134.31250992253439 79.091047690493426 3.0 72.384822847255748 84.8194372322113 3.0 83.300717326087508 86.071206500134693 3.0 181.93508840177503 85.969528340059853 3.0 60.428410297906808 89.549341197665541 3.0 182.60860430669391 90.413882701885328 3.0 8.9290384301271253 98.314461151040035 3.0 183.6720332540603 102.60670460746071 3.0 72.722516975858127 104.62643061365283 3.0 133.23964408632986 103.24212634242616 3.0 160.46177763799733 110.23988734660664 3.0 3.1105050854760052 113.69640450156722 3.0 185.9460458098722 114.20674016928182 3.0 141.3044672348712 116.70501690274305 3.0 183.94122874913134 127.68648595203867 3.0 35.418810236001768 123.1461082221095 3.0 67.315246179162159 127.56398307276793 3.0 73.541911068873404 131.20877353083256 3.0 29.002958043289514 130.4082882341406 3.0 147.42868542624501 133.7114203996251 3.0 19.410198001028988 133.51191317700986 3.0 5.739382626367834 136.69967519181051 3.0 32.135497983084811 142.66092599952125 3.0 197.42393855407795 137.65460505522663 3.0 42.880150333416999 139.59050536700033 3.0 6.3544515535565704 148.02615601067626 3.0 143.12650217175337 151.31264256494589 3.0 176.56295894079565 148.53360487501971 3.0 194.18900707993117 146.32206449053862 3.0 20.269514363551647 152.99154049182087 3.0 170.75578692654912 153.3605018282405 3.0 29.810232962254883 152.04319081486543 3.0 160.58037788497762 157.00459446559907 3.0 11.234947928024933 158.04271287666617 3.0 119.00657930866046 154.87898126931921 3.0 41.139278520485426 161.42138862405938 3.0 50.090246334783373 159.62686184699609 3.0 148.9505070384632 161.46757008966773 3.0 93.555784167126319 159.1104683110805 3.0 165.41040049335152 166.65103290967772 3.0 94.478426248241519 170.89094576944279 3.0 193.07653242038199 175.13489603430662 3.0 180.91602032159847 171.06013906286427 3.0 100.29046433310816 175.4011918923978 3.0 147.81188690347798 181.44921272931276 3.0 27.862688063215977 184.38953683119894 3.0 184.87815829922343 188.51053927766361 3.0 192.94627050588286 192.66483301091966 3.0 91.159649634344291 196.42615374395331 3.0 15.676712528539328 197.34950652144278 3.0 187.89891085178596 195.7621891754836 3.0 22.229743794425552 3.0604716305380006 2 94.625940284261702 5.3348623443991707 2 121.44580160422082 12.630137677089065 2 73.718628816924792 11.538215705580242 2 10.094127456906996 14.111911101959354 2 17.640281782469827 23.511199257818774 2 64.182255459969724 24.427646792409814 2 106.99285523258959 24.192256101149876 2 134.52691972959019 35.691497586550263 2 27.768897298955309 29.84372028205615 2 183.21365069457485 35.455608020014139 2 194.86264715617116 31.346293405571654 2 118.83463026280063 39.156477547264551 2 71.914053423756727 41.820530750003513 2 140.1911182907204 39.144555819506913 2 27.045830153852751 34.546175884767777 2 57.480611844362173 41.52847330000278 2 18.1536288077466 47.842893283948285 2 159.83206405480055 52.482469034694645 2 190.15505292821598 52.419444043869603 2 25.131931430715575 58.16757508399963 2 98.844864976335913 57.846861633055902 2 91.275229530162065 52.205222339809296 2 83.049487612021039 60.811729154302675 2 196.64198032822114 66.555872272409118 2 79.150405059454499 71.654257334217561 2 105.65633157732138 73.413437703204949 2 175.46214795043608 68.201930977587452 2 148.48472637767316 72.770220860249822 2 135.09989623553656 84.537463615000476 2 75.523965170240956 91.891327731781743 2 89.26147560606816 87.73346409115706 2 176.95253075517604 93.586242288931103 2 68.50261154663454 89.070066291150198 2 188.89394406802509 94.812669714282706 2 4.5407861958589288 93.207553633176275 2 191.9693507430427 103.99792653243355 2 73.766336896929104 110.12858793004121 2 135.53762128502666 112.41477282753388 2 155.37037700326277 108.35031153351299 2 5.3084251316744089 109.48906757533791 2 190.30620552456969 121.44335151953506 2 146.21323637446534 123.94492007632894 2 181.67492693357053 121.35020932741793 2 38.295325655166209 132.10686252673986 2 62.844638931286795 129.17178750156751 2 71.946075431649078 124.49141892645655 2 30.456649364603276 134.84545168942233 2 142.23204737662874 132.73140230520988 2 23.296560591259386 139.78449289970516 2 3.8710004248295373 144.07087666697598 2 36.175371369085958 140.34376156249658 2 190.48698056167751 138.40354254841989 2 45.623562447291889 143.85556064304299 2 12.63329819207704 141.10613504502101 2 142.07542532375257 142.16761303434279 2 172.49723754040841 144.00259387265265 2 195.63799869955233 153.13729564644717 2 15.971687413065546 157.73697604386552 2 166.68247071363973 149.48853040790672 2 30.829359300715041 159.56274924920922 2 157.18494152929441 153.73527172230112 2 9.7467330597944279 153.03531060709719 2 123.63350429495115 155.75341751318982 2 36.499701876494619 153.57232230752064 2 48.401656815818569 155.42178994641131 2 153.07042321692558 156.2751864486267 2 100.89508899483852 163.09404692398837 2 158.80976494934501 170.22221378202886 2 95.396997574918274 176.48398986022886 2 197.48276614810541 168.14156796831048 2 180.01761971835103 180.57880029031563 2 102.3084348572693 179.70181576464716 2 154.5474931492119 184.12478339061545 2 27.352887712975381 189.26128649307205 2 190.17530940288682 186.79262468501631 2 197.02278306944737 190.36708838928956 2 87.779932464384899 188.6873172391476 2 16.353853479232185 192.02539168370427 2 178.89696410431307 196.78612118557137 2 26.692050541256485 5.4912578433842683 2 84.170132220610185 12.934459994976384 2 122.82420356241184 4.6356626842150437 2 75.221390360730354 16.093274181152282 2 6.424292073551884 17.268979905204105 2 23.571533964751637 23.351233798334572 2 57.383326753302299 19.409928688641752 2 105.13887180152651 19.699165151927147 2 131.10310226790472 31.744676000276677 2 21.42043506734068 27.589373544256556 2 174.63387582237033 36.246096400780971 2 191.51116183821642 35.426039629660202 2 110.50789659212209 32.897685630951749 2 68.255189562103823 38.664816841825058 2 144.94937071212738 40.171116589938464 2 33.195558899348129 40.180139195505596 2 11.311905724521816 41.157890371889884 2 155.17920191020835 51.09289380812676 2 197.5709020570951 47.070245228112995 2 17.905516098847048 60.33305856643377 2 105.04408856493177 59.671224063182223 2 87.639864240486219 60.800734308183713 2 77.789511120034106 65.589070722495251 2 191.97811899319748 69.053374648808003 2 74.383387437200383 71.202825878104477 2 94.007575051329724 71.254201833420424 2 175.9850522773242 77.488295975631956 2 140.23397965515008 72.074758029117191 2 133.39754388220342 74.435539286947986 2 76.470899300789199 87.119064518535581 2 80.429154496656054 89.811168851021847 2 186.23875531493979 84.251250082553057 2 64.260406226302322 86.754416908517058 2 182.90669842681197 94.622921560359288 2 9.8034784701058655 93.64877044992744 2 180.45588648548582 98.722052304863183 2 68.180745559993738 106.02929398996334 2 135.0382363648103 107.61049908771969 2 165.0193397858059 111.5905688469682 2 6.2257566055164961 117.28238999951968 2 190.00260595637289 116.64690841654192 2 145.73974410657573 118.8437810379006 2 188.21835004288587 125.74378736399798 2 31.763499243536359 126.55832835766356 2 68.888742905498148 132.04511599055041 2 77.575627696625901 128.74604889713672 2 33.580593237556997 131.28429090175229 2 147.09954754175507 138.45350659660102 2 23.932071981396586 134.97262414386628 2 10.245040750240273 136.9702439686375 2 27.296877694897468 143.70602248778528 2 196.56094895308033 142.26868354284304 2 39.771546647051174 136.5012243250913 2 11.078152905649926 148.36449557340208 2 141.3508680979615 146.94732001280792 2 175.5072159117158 153.1500236494266 2 197.5709020570951 149.00956187998946 2 24.33887681961539 150.58442579922163 2 171.49136767651981 158.02161661860495 2 27.441220677617324 156.15281317481683 2 165.20177571053927 158.03559678579262 2 7.579977490923107 161.07112164723225 2 120.0752721002671 159.41971720615186 2 44.40845306618818 157.99675392216409 2 47.705808139271674 163.6462277699807 2 144.27125389932363 162.30227026594659 2 96.039319799618781 163.1617059586209 2 160.7406560734189 165.76518028708458 2 91.092618741670577 174.30407928604552 2 180.82390252254962 175.79297904378316 2 104.38471902677847 172.9869916438692 2 152.27967672873356 179.83183636996094 2 30.441507124822227 180.5345375003601 2 180.81550046418997 186.29389933463941 2 188.55246708480377 191.2287480064202 2 87.407730842743462 193.52236315677538 2 11.959940026221231 194.38617808663025 2 183.10752176732839 192.85827646462141 2 90.972812471746266 8.2725511844413191 2 118.11830549557463 16.137047055692616 2 69.38969017093531 13.811771456935801 2 14.923863856797668 14.413925990277205 2 15.416036231273926 19.220216056432243 2 62.564326999513156 29.00078339242588 2 111.48072561044437 22.333762815794145 2 137.56053123544655 31.897417257132979 2 31.263341861626184 26.591752024208841 2 181.64766738582861 40.054036076563825 2 189.98936215734884 30.825885891698171 2 116.26400427363153 35.034889693850928 2 66.965940453047793 43.331720802361737 2 140.72516701900804 43.97290797365833 2 31.755346573866575 33.848110841317343 2 14.195850578633575 50.659599836589877 2 159.73813721207867 47.623118963867604 2 192.74775462397432 48.31143764608948 2 24.3508708883389 62.962133326807539 2 95.570396331512541 61.303302213205441 2 94.717186057017997 55.515671156945253 2 87.040372743663994 65.587325443468487 2 192.38912198246314 64.207981645873403 2 83.827340829064184 72.703295665626939 2 102.4296608352668 69.925362780944937 2 180.27877959458471 68.939050972655821 2 144.5321192181602 70.009681220706526 2 130.79212733143538 82.274521042338719 2 79.628838774205278 94.553354387761289 2 85.275741409071571 90.510432073984958 2 177.42360961114935 88.771054508083495 2 68.233626429399877 93.85941261264523 2 185.26908792217003 98.283321675256204 2 7.5317400417584022 89.361987858046604 2 189.2632900048855 100.24663666200226 2 70.008107100954689 113.20650169023418 2 130.82156432486855 110.8785447950065 2 159.11465793161614 105.25544406557444 2 2.429097942904879 105.58590689975715 2 185.96816127543809 119.28857812427064 2 141.66749000144446 121.41821966092988 2 177.85470785130195 124.22566785423849 2 36.481622176254405 127.64156257804615 2 58.196297608400073 127.76977853902076 2 76.774596749779562 123.96442609249242 2 29.06982826859619 139.27617022115049 2 144.50722072896684 128.47152397924521 2 18.813000241527245 141.64446606862825 2 2.429097942904879 139.6102801401214 2 35.135974413107469 135.73378504051041 2 191.11391421865073 143.08142789043609 2 8.6982916532431993 143.89264108744013 2 137.30131302803451 144.30438190899719 2 171.79030489377612 148.77310495582336 2 197.5709020570951 157.30518852620625 2 15.542506555400443 152.89444147111115 2 163.8104857874219 153.39045564449401 2 35.329058158244678 158.17010629809269 2 155.4051184614581 149.24837714402943 2 5.0149773543137464 154.12589164059511 2 128.02072598405795 157.58621800021183 2 39.876445175637166 156.86413227122341 2 44.562727030750452 153.21515396203134 2 148.2529215077023 156.76536812377762 2 98.435693313245991 158.89690107496634 2 163.13669185022624 172.43001510496549 2 97.583431098144246 180.78280018304335 2 197.5709020570951 172.94738673153878 2 176.23497442189588 177.34688685731049 2 103.08925187382725 184.4923649102652 2 159.16306498493799 182.61590104801323 2 187.78633341622083 182.73932319900982 2 197.5709020570951 185.56912899095391 2 82.967758406073514 189.41554749290898 2 18.765058815146681 187.7965458876655 2 183.63098568701372 197.5709020570951 2 </DataArray>
</Points>
<Cells>
<DataArray Name="connectivity" format="ascii" type="Int32">0</DataArray>
<DataArray Name="offsets" format="ascii" type="Int32">0</DataArray>
<DataArray Name="types" format="ascii" type="UInt8">1</DataArray>
</Cells>
<PointData>
<DataArray Name="Points" NumberOfComponents="3" format="ascii" type="Float32">29.971846904174821 2.429097942904879 3.0 86.391151578605104 8.8106432804679891 3.0 124.53810549508867 9.056522550127065 3.0 79.075311255509121 18.784521259572035 3.0 8.5974564072172637 21.490867690845466 3.0 22.412271645521685 18.800073415659281 3.0 62.067493186288246 20.181350453897462 3.0 101.03156846173263 22.042643648790289 3.0 134.21389376917983 28.150418151686701 3.0 23.435604988660049 31.678561964401094 3.0 178.27408982837116 33.189209874088903 3.0 195.15791484204084 38.454531300385909 3.0 112.12269413621658 37.368755211153406 3.0 66.223216232287569 34.409990548362302 3.0 145.61815875323961 35.464945338225029 3.0 29.008474529067328 42.390739666829262 3.0 50.844822086383935 46.896517730863152 3.0 13.100654019793257 45.56198991467042 3.0 154.26455767233071 46.430245805383258 3.0 196.38318803320493 51.67256870503077 3.0 19.81994039391196 55.982116959721331 3.0 102.83340039579336 55.46511656741162 3.0 91.605380174133828 58.801708805621139 3.0 82.429256258314368 66.265292565808736 3.0 187.95160971373195 66.526379246153212 3.0 73.181995936654246 66.630853578337835 3.0 98.529597190249362 72.623236260068552 3.0 175.66670812040942 72.87523103138858 3.0 142.20602837964125 76.25182771360916 3.0 134.31250992253439 79.091047690493426 3.0 72.384822847255748 84.8194372322113 3.0 83.300717326087508 86.071206500134693 3.0 181.93508840177503 85.969528340059853 3.0 60.428410297906808 89.549341197665541 3.0 182.60860430669391 90.413882701885328 3.0 8.9290384301271253 98.314461151040035 3.0 183.6720332540603 102.60670460746071 3.0 72.722516975858127 104.62643061365283 3.0 133.23964408632986 103.24212634242616 3.0 160.46177763799733 110.23988734660664 3.0 3.1105050854760052 113.69640450156722 3.0 185.9460458098722 114.20674016928182 3.0 141.3044672348712 116.70501690274305 3.0 183.94122874913134 127.68648595203867 3.0 35.418810236001768 123.1461082221095 3.0 67.315246179162159 127.56398307276793 3.0 73.541911068873404 131.20877353083256 3.0 29.002958043289514 130.4082882341406 3.0 147.42868542624501 133.7114203996251 3.0 19.410198001028988 133.51191317700986 3.0 5.739382626367834 136.69967519181051 3.0 32.135497983084811 142.66092599952125 3.0 197.42393855407795 137.65460505522663 3.0 42.880150333416999 139.59050536700033 3.0 6.3544515535565704 148.02615601067626 3.0 143.12650217175337 151.31264256494589 3.0 176.56295894079565 148.53360487501971 3.0 194.18900707993117 146.32206449053862 3.0 20.269514363551647 152.99154049182087 3.0 170.75578692654912 153.3605018282405 3.0 29.810232962254883 152.04319081486543 3.0 160.58037788497762 157.00459446559907 3.0 11.234947928024933 158.04271287666617 3.0 119.00657930866046 154.87898126931921 3.0 41.139278520485426 161.42138862405938 3.0 50.090246334783373 159.62686184699609 3.0 148.9505070384632 161.46757008966773 3.0 93.555784167126319 159.1104683110805 3.0 165.41040049335152 166.65103290967772 3.0 94.478426248241519 170.89094576944279 3.0 193.07653242038199 175.13489603430662 3.0 180.91602032159847 171.06013906286427 3.0 100.29046433310816 175.4011918923978 3.0 147.81188690347798 181.44921272931276 3.0 27.862688063215977 184.38953683119894 3.0 184.87815829922343 188.51053927766361 3.0 192.94627050588286 192.66483301091966 3.0 91.159649634344291 196.42615374395331 3.0 15.676712528539328 197.34950652144278 3.0 187.89891085178596 195.7621891754836 3.0 22.229743794425552 3.0604716305380006 2 94.625940284261702 5.3348623443991707 2 121.44580160422082 12.630137677089065 2 73.718628816924792 11.538215705580242 2 10.094127456906996 14.111911101959354 2 17.640281782469827 23.511199257818774 2 64.182255459969724 24.427646792409814 2 106.99285523258959 24.192256101149876 2 134.52691972959019 35.691497586550263 2 27.768897298955309 29.84372028205615 2 183.21365069457485 35.455608020014139 2 194.86264715617116 31.346293405571654 2 118.83463026280063 39.156477547264551 2 71.914053423756727 41.820530750003513 2 140.1911182907204 39.144555819506913 2 27.045830153852751 34.546175884767777 2 57.480611844362173 41.52847330000278 2 18.1536288077466 47.842893283948285 2 159.83206405480055 52.482469034694645 2 190.15505292821598 52.419444043869603 2 25.131931430715575 58.16757508399963 2 98.844864976335913 57.846861633055902 2 91.275229530162065 52.205222339809296 2 83.049487612021039 60.811729154302675 2 196.64198032822114 66.555872272409118 2 79.150405059454499 71.654257334217561 2 105.65633157732138 73.413437703204949 2 175.46214795043608 68.201930977587452 2 148.48472637767316 72.770220860249822 2 135.09989623553656 84.537463615000476 2 75.523965170240956 91.891327731781743 2 89.26147560606816 87.73346409115706 2 176.95253075517604 93.586242288931103 2 68.50261154663454 89.070066291150198 2 188.89394406802509 94.812669714282706 2 4.5407861958589288 93.207553633176275 2 191.9693507430427 103.99792653243355 2 73.766336896929104 110.12858793004121 2 135.53762128502666 112.41477282753388 2 155.37037700326277 108.35031153351299 2 5.3084251316744089 109.48906757533791 2 190.30620552456969 121.44335151953506 2 146.21323637446534 123.94492007632894 2 181.67492693357053 121.35020932741793 2 38.295325655166209 132.10686252673986 2 62.844638931286795 129.17178750156751 2 71.946075431649078 124.49141892645655 2 30.456649364603276 134.84545168942233 2 142.23204737662874 132.73140230520988 2 23.296560591259386 139.78449289970516 2 3.8710004248295373 144.07087666697598 2 36.175371369085958 140.34376156249658 2 190.48698056167751 138.40354254841989 2 45.623562447291889 143.85556064304299 2 12.63329819207704 141.10613504502101 2 142.07542532375257 142.16761303434279 2 172.49723754040841 144.00259387265265 2 195.63799869955233 153.13729564644717 2 15.971687413065546 157.73697604386552 2 166.68247071363973 149.48853040790672 2 30.829359300715041 159.56274924920922 2 157.18494152929441 153.73527172230112 2 9.7467330597944279 153.03531060709719 2 123.63350429495115 155.75341751318982 2 36.499701876494619 153.57232230752064 2 48.401656815818569 155.42178994641131 2 153.07042321692558 156.2751864486267 2 100.89508899483852 163.09404692398837 2 158.80976494934501 170.22221378202886 2 95.396997574918274 176.48398986022886 2 197.48276614810541 168.14156796831048 2 180.01761971835103 180.57880029031563 2 102.3084348572693 179.70181576464716 2 154.5474931492119 184.12478339061545 2 27.352887712975381 189.26128649307205 2 190.17530940288682 186.79262468501631 2 197.02278306944737 190.36708838928956 2 87.779932464384899 188.6873172391476 2 16.353853479232185 192.02539168370427 2 178.89696410431307 196.78612118557137 2 26.692050541256485 5.4912578433842683 2 84.170132220610185 12.934459994976384 2 122.82420356241184 4.6356626842150437 2 75.221390360730354 16.093274181152282 2 6.424292073551884 17.268979905204105 2 23.571533964751637 23.351233798334572 2 57.383326753302299 19.409928688641752 2 105.13887180152651 19.699165151927147 2 131.10310226790472 31.744676000276677 2 21.42043506734068 27.589373544256556 2 174.63387582237033 36.246096400780971 2 191.51116183821642 35.426039629660202 2 110.50789659212209 32.897685630951749 2 68.255189562103823 38.664816841825058 2 144.94937071212738 40.171116589938464 2 33.195558899348129 40.180139195505596 2 11.311905724521816 41.157890371889884 2 155.17920191020835 51.09289380812676 2 197.5709020570951 47.070245228112995 2 17.905516098847048 60.33305856643377 2 105.04408856493177 59.671224063182223 2 87.639864240486219 60.800734308183713 2 77.789511120034106 65.589070722495251 2 191.97811899319748 69.053374648808003 2 74.383387437200383 71.202825878104477 2 94.007575051329724 71.254201833420424 2 175.9850522773242 77.488295975631956 2 140.23397965515008 72.074758029117191 2 133.39754388220342 74.435539286947986 2 76.470899300789199 87.119064518535581 2 80.429154496656054 89.811168851021847 2 186.23875531493979 84.251250082553057 2 64.260406226302322 86.754416908517058 2 182.90669842681197 94.622921560359288 2 9.8034784701058655 93.64877044992744 2 180.45588648548582 98.722052304863183 2 68.180745559993738 106.02929398996334 2 135.0382363648103 107.61049908771969 2 165.0193397858059 111.5905688469682 2 6.2257566055164961 117.28238999951968 2 190.00260595637289 116.64690841654192 2 145.73974410657573 118.8437810379006 2 188.21835004288587 125.74378736399798 2 31.763499243536359 126.55832835766356 2 68.888742905498148 132.04511599055041 2 77.575627696625901 128.74604889713672 2 33.580593237556997 131.28429090175229 2 147.09954754175507 138.45350659660102 2 23.932071981396586 134.97262414386628 2 10.245040750240273 136.9702439686375 2 27.296877694897468 143.70602248778528 2 196.56094895308033 142.26868354284304 2 39.771546647051174 136.5012243250913 2 11.078152905649926 148.36449557340208 2 141.3508680979615 146.94732001280792 2 175.5072159117158 153.1500236494266 2 197.5709020570951 149.00956187998946 2 24.33887681961539 150.58442579922163 2 171.49136767651981 158.02161661860495 2 27.441220677617324 156.15281317481683 2 165.20177571053927 158.03559678579262 2 7.579977490923107 161.07112164723225 2 120.0752721002671 159.41971720615186 2 44.40845306618818 157.99675392216409 2 47.705808139271674 163.6462277699807 2 144.27125389932363 162.30227026594659 2 96.039319799618781 163.1617059586209 2 160.7406560734189 165.76518028708458 2 91.092618741670577 174.30407928604552 2 180.82390252254962 175.79297904378316 2 104.38471902677847 172.9869916438692 2 152.27967672873356 179.83183636996094 2 30.441507124822227 180.5345375003601 2 180.81550046418997 186.29389933463941 2 188.55246708480377 191.2287480064202 2 87.407730842743462 193.52236315677538 2 11.959940026221231 194.38617808663025 2 183.10752176732839 192.85827646462141 2 90.972812471746266 8.2725511844413191 2 118.11830549557463 16.137047055692616 2 69.38969017093531 13.811771456935801 2 14.923863856797668 14.413925990277205 2 15.416036231273926 19.220216056432243 2 62.564326999513156 29.00078339242588 2 111.48072561044437 22.333762815794145 2 137.56053123544655 31.897417257132979 2 31.263341861626184 26.591752024208841 2 181.64766738582861 40.054036076563825 2 189.98936215734884 30.825885891698171 2 116.26400427363153 35.034889693850928 2 66.965940453047793 43.331720802361737 2 140.72516701900804 43.97290797365833 2 31.755346573866575 33.848110841317343 2 14.195850578633575 50.659599836589877 2 159.73813721207867 47.623118963867604 2 192.74775462397432 48.31143764608948 2 24.3508708883389 62.962133326807539 2 95.570396331512541 61.303302213205441 2 94.717186057017997 55.515671156945253 2 87.040372743663994 65.587325443468487 2 192.38912198246314 64.207981645873403 2 83.827340829064184 72.703295665626939 2 102.4296608352668 69.925362780944937 2 180.27877959458471 68.939050972655821 2 144.5321192181602 70.009681220706526 2 130.79212733143538 82.274521042338719 2 79.628838774205278 94.553354387761289 2 85.275741409071571 90.510432073984958 2 177.42360961114935 88.771054508083495 2 68.233626429399877 93.85941261264523 2 185.26908792217003 98.283321675256204 2 7.5317400417584022 89.361987858046604 2 189.2632900048855 100.24663666200226 2 70.008107100954689 113.20650169023418 2 130.82156432486855 110.8785447950065 2 159.11465793161614 105.25544406557444 2 2.429097942904879 105.58590689975715 2 185.96816127543809 119.28857812427064 2 141.66749000144446 121.41821966092988 2 177.85470785130195 124.22566785423849 2 36.481622176254405 127.64156257804615 2 58.196297608400073 127.76977853902076 2 76.774596749779562 123.96442609249242 2 29.06982826859619 139.27617022115049 2 144.50722072896684 128.47152397924521 2 18.813000241527245 141.64446606862825 2 2.429097942904879 139.6102801401214 2 35.135974413107469 135.73378504051041 2 191.11391421865073 143.08142789043609 2 8.6982916532431993 143.89264108744013 2 137.30131302803451 144.30438190899719 2 171.79030489377612 148.77310495582336 2 197.5709020570951 157.30518852620625 2 15.542506555400443 152.89444147111115 2 163.8104857874219 153.39045564449401 2 35.329058158244678 158.17010629809269 2 155.4051184614581 149.24837714402943 2 5.0149773543137464 154.12589164059511 2 128.02072598405795 157.58621800021183 2 39.876445175637166 156.86413227122341 2 44.562727030750452 153.21515396203134 2 148.2529215077023 156.76536812377762 2 98.435693313245991 158.89690107496634 2 163.13669185022624 172.43001510496549 2 97.583431098144246 180.78280018304335 2 197.5709020570951 172.94738673153878 2 176.23497442189588 177.34688685731049 2 103.08925187382725 184.4923649102652 2 159.16306498493799 182.61590104801323 2 187.78633341622083 182.73932319900982 2 197.5709020570951 185.56912899095391 2 82.967758406073514 189.41554749290898 2 18.765058815146681 187.7965458876655 2 183.63098568701372 197.5709020570951 2 </DataArray>