<?xml version="1.0" ?>
<VTKFile byte_order="LittleEndian" type="UnstructuredGrid" version="0.1">
<UnstructuredGrid>
<Piece NumberOfCells="0" NumberOfPoints="944">
<Points>
<DataArray NumberOfComponents="3" format="ascii" type="Float32">70.879615624276127 7.3240712192577968 3.0 155.68055116778484 9.0413840840961175 3.0 81.622493704466848 2.7 3.0 184.47177021827201 10.158984662223057 3.0 56.802412243405371 8.3910912111162883 3.0 2.7644276982196589 24.868439541402861 3.0 38.058091142198975 10.189687876329012 3.0 121.43203755181175 15.546914367993873 3.0 105.08002182305491 15.753240953544202 3.0 30.403435624661633 23.033288355001108 3.0 60.236028128666796 22.921752027497831 3.0 100.69152235623697 21.579643515556462 3.0 120.40412275789828 27.443598868797501 3.0 55.690579243105148 36.621727162168071 3.0 122.8624388922161 31.175064905857138 3.0 32.407368781258803 40.933664409587188 3.0 16.998815841079555 36.871576540745224 3.0 92.016072638105967 41.845980381445706 3.0 192.36456467579427 41.77769297909439 3.0 127.63406494191871 40.06107759877402 3.0 122.81197335105338 57.142059394271996 3.0 194.07711447132388 59.047470245160937 3.0 66.891741374103646 53.98117903421079 3.0 136.91029368728348 62.63382550973035 3.0 185.55616342583082 68.088088886979421 3.0 25.57326561134494 63.165510323825877 3.0 77.633448893287323 65.527854629566662 3.0 155.84872375221227 69.080236522856993 3.0 119.1162422306041 76.682312045407357 3.0 74.073572876788432 78.431534905740051 3.0 112.27479528297751 71.362997733670966 3.0 96.809118172044336 74.165690847586021 3.0 33.86433340564281 78.987246503411953 3.0 146.14454123334087 81.681119884531469 3.0 65.742753360006105 82.048237382498954 3.0 18.084356398331195 80.615284886812589 3.0 36.160199798740919 82.967319031531929 3.0 53.285712569775889 83.051067499370845 3.0 14.550235450738233 93.032928672765408 3.0 192.50799792918397 92.746186139497922 3.0 112.25621502529211 97.598906666496433 3.0 188.6427136096973 100.14917268265481 3.0 168.33024247283498 98.937122775513629 3.0 12.734318005821507 113.50322250281847 3.0 96.786797646525088 108.547296845284 3.0 61.923908143001341 119.75751355145594 3.0 189.03765311372956 119.3555649001363 3.0 87.756860103484286 123.5947865770782 3.0 113.96553038822007 130.62654508866558 3.0 10.691707615422578 125.41252528685449 3.0 104.88671823309431 127.45121201091956 3.0 88.990856695104299 134.67267725139203 3.0 144.16397353582025 139.01863778936462 3.0 173.72071239870493 139.12167423255482 3.0 108.37037097578241 139.4226487646236 3.0 158.84196305378637 144.71809388128523 3.0 2.7 140.22997892457238 3.0 104.0368632733436 155.52837745064068 3.0 120.15735595249672 152.62844337229072 3.0 137.70627288628455 157.03057172727185 3.0 120.85092846052677 167.66248387433888 3.0 153.43845155487273 160.60338107512666 3.0 40.247077198481051 152.55232233964043 3.0 152.05161479912016 168.7533761940137 3.0 137.57014375285237 166.48193596519741 3.0 104.20001104493409 175.45945668479234 3.0 152.75229461882711 183.17922056557558 3.0 172.25468352862242 167.5503551963547 3.0 71.863663190935114 171.63852508888806 3.0 56.637489227031978 184.65664700775113 3.0 145.29997188939464 185.66723363605163 3.0 40.444548769375949 187.8083708250405 3.0 93.365661003091532 183.73498787177388 3.0 197.3 175.36285288481483 3.0 176.86321228248997 193.3511971624927 3.0 170.25841840954109 197.3 3.0 123.95197807548988 197.3 3.0 181.01819582503833 193.34359392614851 3.0 106.48092580522189 182.98840773309158 3.0 61.57256750833055 2.7 2 168.55785574809491 6.2975612384869821 2 89.096305269155195 13.575759317313707 2 196.58140862614272 3.404434807161651 2 57.444818045742309 2.7 2 3.6230246242087953 3.1672709149472427 2 40.51572674251755 23.063737106671226 2 136.47138950743437 7.4607473797414796 2 100.38439616915554 10.851594137830501 2 29.017057698563015 31.620323317667431 2 50.979405760361487 17.44797129439371 2 88.417715565047743 17.950356684653318 2 120.86393090608769 33.805183460043622 2 44.471021749471426 39.874396921396645 2 84.568119268708713 38.842358506518217 2 178.70277835406861 38.072052027195888 2 132.98793934654029 51.094393590042607 2 115.30163579650379 52.279079134688118 2 191.43098601763455 50.02207583147613 2 56.899148521332926 67.376971939235858 2 147.16823954888758 53.016104051324348 2 183.8207769857419 59.468184877621916 2 26.143787280127029 56.036895009926511 2 87.506137701321492 57.923543074365966 2 163.66626565285796 57.222671706840785 2 123.59176795834239 77.618038415304127 2 85.826692400896277 79.95027036171102 2 94.887673259814221 69.701417203593437 2 20.302811919822307 75.025709639445495 2 143.3737867009138 73.759816223890041 2 61.276993956190076 68.633764512426836 2 2.7 73.260460988991795 2 33.781846797845873 89.65548033564194 2 50.573316360223217 95.094462401672104 2 16.231646622763524 84.069278324917207 2 185.92664952126222 86.666058074863756 2 170.69351993926861 94.810213461303391 2 167.64898976758528 109.55008655931375 2 13.248543647062496 121.82747616641096 2 110.50248611917019 113.48245646195498 2 48.911076145871974 113.20133328648325 2 188.02875795426229 123.58154109529309 2 82.976035316647767 115.27666828438504 2 118.05115035306733 131.24528296676985 2 2.7 131.25980412371774 2 95.750444488954145 116.9008791617529 2 93.648994418309044 133.70741698050892 2 138.77332224219725 132.37679626551986 2 188.65166372579955 136.55437187871874 2 115.44842468022313 134.59853097186698 2 169.60406111451758 136.59334083907152 2 12.759321617927366 155.90690257328166 2 107.47243393410204 151.76246758245986 2 137.41728749993138 141.98194763489644 2 144.70115428335293 146.23260444125219 2 123.1959157004607 159.36731469775032 2 147.42200638675459 150.50697019228755 2 49.179585510404728 161.10256115181841 2 161.58219298330414 161.58819286946942 2 130.05141408689857 176.08544340712268 2 98.152023768917431 182.73728129228016 2 163.8302955496606 176.80172108619311 2 183.21521906996264 170.92552520430851 2 63.641069301112999 185.62354081829844 2 47.945632736167973 182.55822760572218 2 132.1853605888428 183.85571558513377 2 37.222476171046409 175.95141776796734 2 90.770840525211256 179.42876154957577 2 187.68222635221335 173.20712951219198 2 183.73909421696655 182.17935918356198 2 165.62861540574428 188.44810536140793 2 126.56991219262669 189.14923071519618 2 193.90083690587946 197.3 2 112.57358833609345 197.3 2 64.140273979443919 11.958240801929069 2 147.2078130779164 2.7 2 77.251969973187826 13.281480772577211 2 192.29643464281438 7.7109912438120745 2 60.109901600641315 14.540890327487036 2 11.782970451725134 20.034192999030815 2 38.170335812187375 20.258502961019719 2 126.27044261125724 14.638680939592652 2 62.474120342473945 19.806966380842024 2 96.225831820855532 25.642876395573118 2 45.602849300198379 29.147552080296759 2 38.393434736793594 34.403247392102813 2 20.484294596208194 33.929197448963521 2 85.406888877845759 45.641013653066693 2 179.23493004006485 47.362599633696384 2 124.43717693588252 48.612286671100001 2 186.64536404820461 48.285434118129025 2 70.406345173439874 56.777179953329053 2 135.82617507499177 67.212334249312406 2 22.0525133712902 66.305956687928614 2 73.858589393482021 58.648280482260027 2 151.74222825693809 77.646824063645241 2 121.99111524565279 63.698499871137848 2 75.106612281485894 69.096753785222987 2 108.59397587327808 68.192655637753447 2 93.332463260737441 77.951866698875719 2 69.215003173913615 80.054728664627447 2 7.4251315194666017 72.951058768709558 2 44.649504825461804 79.428197707229785 2 55.391783815717211 86.927289200918409 2 2.7 92.22565853114935 2 181.30199289860843 89.666277835094974 2 123.04518314011339 104.19633376023103 2 180.13945786881158 103.24686446224344 2 171.04146815531772 106.7798070298543 2 20.289357584648506 100.83846133756936 2 110.20693999235824 118.20462197378133 2 53.778729938653647 111.80574325527114 2 87.042157975882418 117.30719964744934 2 19.941299633642224 126.69715514881213 2 94.898954538867372 121.35792694636524 2 87.662583498853564 141.37192487332507 2 152.04950748693457 135.87306373208568 2 177.91482206021644 141.41929296160427 2 100.00289277094845 149.07211180872972 2 162.127725001854 130.30046963656031 2 109.32727101942474 162.02046999299668 2 130.58291125251949 146.41782516734747 2 111.72725135444746 157.97933175401346 2 148.63514517442908 158.3891505488034 2 147.29537032854827 174.53327534770145 2 136.89530086042524 177.97696801861895 2 100.72864121604725 173.74029850022765 2 148.26323296897522 178.93895432565517 2 178.21047150729697 161.45415994522639 2 53.728332489856051 192.44210543678935 2 136.54399511045213 182.20968513622691 2 48.139441609706182 195.95417925759665 2 80.622761012411303 188.05886058234378 2 197.3 181.99633178732614 2 174.44729706401355 197.3 2 173.2382079107704 185.56261090317159 2 135.40287153156686 192.0184021080176 2 197.3 188.30877182125207 2 98.363187929329968 192.35520451438529 2 76.767091221059033 2.7 2 151.59969380913594 2.7 2 90.53784350671954 2.7 2 180.14942312505107 11.453385000543079 2 45.312936104629159 2.7 2 15.371528285571561 10.536466458545345 2 45.169611851793 12.595428178061537 2 127.84204007678747 8.7044445929501713 2 100.31450430926321 7.411777495187474 2 42.738806553114379 26.423033073008941 2 49.62559366977078 21.415864411004822 2 92.992974433921333 12.390819976000888 2 44.109179582337354 43.99767957915342 2 95.515895553506766 38.814727167270171 2 173.5573230208945 41.974671435716708 2 133.89090829121986 59.032585745984271 2 121.47812457014686 45.472189100886141 2 197.3 42.970269180332167 2 59.128573791832707 55.783429854113663 2 146.75598356885169 59.701312241713282 2 173.4178947144687 52.935572614278271 2 38.072492727629601 59.083140767812147 2 92.67146785458047 57.335633931239755 2 159.10326147866996 56.706379702241307 2 131.52431257549614 67.945262397238253 2 85.831893996629717 84.481795657689617 2 90.327415467391575 69.478608309301364 2 33.886026711777809 66.781781455501957 2 147.11092285127461 68.807248506680097 2 70.146115386998019 75.919585298246417 2 2.7 80.117196798919281 2 40.9085928
[...]
<PointData>
<DataArray Name="Points" NumberOfComponents="3" format="ascii" type="Float32">70.879615624276127 7.3240712192577968 3.0 155.68055116778484 9.0413840840961175 3.0 81.622493704466848 2.7 3.0 184.47177021827201 10.158984662223057 3.0 56.802412243405371 8.3910912111162883 3.0 2.7644276982196589 24.868439541402861 3.0 38.058091142198975 10.189687876329012 3.0 121.43203755181175 15.546914367993873 3.0 105.08002182305491 15.753240953544202 3.0 30.403435624661633 23.033288355001108 3.0 60.236028128666796 22.921752027497831 3.0 100.69152235623697 21.579643515556462 3.0 120.40412275789828 27.443598868797501 3.0 55.690579243105148 36.621727162168071 3.0 122.8624388922161 31.175064905857138 3.0 32.407368781258803 40.933664409587188 3.0 16.998815841079555 36.871576540745224 3.0 92.016072638105967 41.845980381445706 3.0 192.36456467579427 41.77769297909439 3.0 127.63406494191871 40.06107759877402 3.0 122.81197335105338 57.142059394271996 3.0 194.07711447132388 59.047470245160937 3.0 66.891741374103646 53.98117903421079 3.0 136.91029368728348 62.63382550973035 3.0 185.55616342583082 68.088088886979421 3.0 25.57326561134494 63.165510323825877 3.0 77.633448893287323 65.527854629566662 3.0 155.84872375221227 69.080236522856993 3.0 119.1162422306041 76.682312045407357 3.0 74.073572876788432 78.431534905740051 3.0 112.27479528297751 71.362997733670966 3.0 96.809118172044336 74.165690847586021 3.0 33.86433340564281 78.987246503411953 3.0 146.14454123334087 81.681119884531469 3.0 65.742753360006105 82.048237382498954 3.0 18.084356398331195 80.615284886812589 3.0 36.160199798740919 82.967319031531929 3.0 53.285712569775889 83.051067499370845 3.0 14.550235450738233 93.032928672765408 3.0 192.50799792918397 92.746186139497922 3.0 112.25621502529211 97.598906666496433 3.0 188.6427136096973 100.14917268265481 3.0 168.33024247283498 98.937122775513629 3.0 12.734318005821507 113.50322250281847 3.0 96.786797646525088 108.547296845284 3.0 61.923908143001341 119.75751355145594 3.0 189.03765311372956 119.3555649001363 3.0 87.756860103484286 123.5947865770782 3.0 113.96553038822007 130.62654508866558 3.0 10.691707615422578 125.41252528685449 3.0 104.88671823309431 127.45121201091956 3.0 88.990856695104299 134.67267725139203 3.0 144.16397353582025 139.01863778936462 3.0 173.72071239870493 139.12167423255482 3.0 108.37037097578241 139.4226487646236 3.0 158.84196305378637 144.71809388128523 3.0 2.7 140.22997892457238 3.0 104.0368632733436 155.52837745064068 3.0 120.15735595249672 152.62844337229072 3.0 137.70627288628455 157.03057172727185 3.0 120.85092846052677 167.66248387433888 3.0 153.43845155487273 160.60338107512666 3.0 40.247077198481051 152.55232233964043 3.0 152.05161479912016 168.7533761940137 3.0 137.57014375285237 166.48193596519741 3.0 104.20001104493409 175.45945668479234 3.0 152.75229461882711 183.17922056557558 3.0 172.25468352862242 167.5503551963547 3.0 71.863663190935114 171.63852508888806 3.0 56.637489227031978 184.65664700775113 3.0 145.29997188939464 185.66723363605163 3.0 40.444548769375949 187.8083708250405 3.0 93.365661003091532 183.73498787177388 3.0 197.3 175.36285288481483 3.0 176.86321228248997 193.3511971624927 3.0 170.25841840954109 197.3 3.0 123.95197807548988 197.3 3.0 181.01819582503833 193.34359392614851 3.0 106.48092580522189 182.98840773309158 3.0 61.57256750833055 2.7 2 168.55785574809491 6.2975612384869821 2 89.096305269155195 13.575759317313707 2 196.58140862614272 3.404434807161651 2 57.444818045742309 2.7 2 3.6230246242087953 3.1672709149472427 2 40.51572674251755 23.063737106671226 2 136.47138950743437 7.4607473797414796 2 100.38439616915554 10.851594137830501 2 29.017057698563015 31.620323317667431 2 50.979405760361487 17.44797129439371 2 88.417715565047743 17.950356684653318 2 120.86393090608769 33.805183460043622 2 44.471021749471426 39.874396921396645 2 84.568119268708713 38.842358506518217 2 178.70277835406861 38.072052027195888 2 132.98793934654029 51.094393590042607 2 115.30163579650379 52.279079134688118 2 191.43098601763455 50.02207583147613 2 56.899148521332926 67.376971939235858 2 147.16823954888758 53.016104051324348 2 183.8207769857419 59.468184877621916 2 26.143787280127029 56.036895009926511 2 87.506137701321492 57.923543074365966 2 163.66626565285796 57.222671706840785 2 123.59176795834239 77.618038415304127 2 85.826692400896277 79.95027036171102 2 94.887673259814221 69.701417203593437 2 20.302811919822307 75.025709639445495 2 143.3737867009138 73.759816223890041 2 61.276993956190076 68.633764512426836 2 2.7 73.260460988991795 2 33.781846797845873 89.65548033564194 2 50.573316360223217 95.094462401672104 2 16.231646622763524 84.069278324917207 2 185.92664952126222 86.666058074863756 2 170.69351993926861 94.810213461303391 2 167.64898976758528 109.55008655931375 2 13.248543647062496 121.82747616641096 2 110.50248611917019 113.48245646195498 2 48.911076145871974 113.20133328648325 2 188.02875795426229 123.58154109529309 2 82.976035316647767 115.27666828438504 2 118.05115035306733 131.24528296676985 2 2.7 131.25980412371774 2 95.750444488954145 116.9008791617529 2 93.648994418309044 133.70741698050892 2 138.77332224219725 132.37679626551986 2 188.65166372579955 136.55437187871874 2 115.44842468022313 134.59853097186698 2 169.60406111451758 136.59334083907152 2 12.759321617927366 155.90690257328166 2 107.47243393410204 151.76246758245986 2 137.41728749993138 141.98194763489644 2 144.70115428335293 146.23260444125219 2 123.1959157004607 159.36731469775032 2 147.42200638675459 150.50697019228755 2 49.179585510404728 161.10256115181841 2 161.58219298330414 161.58819286946942 2 130.05141408689857 176.08544340712268 2 98.152023768917431 182.73728129228016 2 163.8302955496606 176.80172108619311 2 183.21521906996264 170.92552520430851 2 63.641069301112999 185.62354081829844 2 47.945632736167973 182.55822760572218 2 132.1853605888428 183.85571558513377 2 37.222476171046409 175.95141776796734 2 90.770840525211256 179.42876154957577 2 187.68222635221335 173.20712951219198 2 183.73909421696655 182.17935918356198 2 165.62861540574428 188.44810536140793 2 126.56991219262669 189.14923071519618 2 193.90083690587946 197.3 2 112.57358833609345 197.3 2 64.140273979443919 11.958240801929069 2 147.2078130779164 2.7 2 77.251969973187826 13.281480772577211 2 192.29643464281438 7.7109912438120745 2 60.109901600641315 14.540890327487036 2 11.782970451725134 20.034192999030815 2 38.170335812187375 20.258502961019719 2 126.27044261125724 14.638680939592652 2 62.474120342473945 19.806966380842024 2 96.225831820855532 25.642876395573118 2 45.602849300198379 29.147552080296759 2 38.393434736793594 34.403247392102813 2 20.484294596208194 33.929197448963521 2 85.406888877845759 45.641013653066693 2 179.23493004006485 47.362599633696384 2 124.43717693588252 48.612286671100001 2 186.64536404820461 48.285434118129025 2 70.406345173439874 56.777179953329053 2 135.82617507499177 67.212334249312406 2 22.0525133712902 66.305956687928614 2 73.858589393482021 58.648280482260027 2 151.74222825693809 77.646824063645241 2 121.99111524565279 63.698499871137848 2 75.106612281485894 69.096753785222987 2 108.59397587327808 68.192655637753447 2 93.332463260737441 77.951866698875719 2 69.215003173913615 80.054728664627447 2 7.4251315194666017 72.951058768709558 2 44.649504825461804 79.428197707229785 2 55.391783815717211 86.927289200918409 2 2.7 92.22565853114935 2 181.30199289860843 89.666277835094974 2 123.04518314011339 104.19633376023103 2 180.13945786881158 103.24686446224344 2 171.04146815531772 106.7798070298543 2 20.289357584648506 100.83846133756936 2 110.20693999235824 118.20462197378133 2 53.778729938653647 111.80574325527114 2 87.042157975882418 117.30719964744934 2 19.941299633642224 126.69715514881213 2 94.898954538867372 121.35792694636524 2 87.662583498853564 141.37192487332507 2 152.04950748693457 135.87306373208568 2 177.91482206021644 141.41929296160427 2 100.00289277094845 149.07211180872972 2 162.127725001854 130.30046963656031 2 109.32727101942474 162.02046999299668 2 130.58291125251949 146.41782516734747 2 111.72725135444746 157.97933175401346 2 148.63514517442908 158.3891505488034 2 147.29537032854827 174.53327534770145 2 136.89530086042524 177.97696801861895 2 100.72864121604725 173.74029850022765 2 148.26323296897522 178.93895432565517 2 178.21047150729697 161.45415994522639 2 53.728332489856051 192.44210543678935 2 136.54399511045213 182.20968513622691 2 48.139441609706182 195.95417925759665 2 80.622761012411303 188.05886058234378 2 197.3 181.99633178732614 2 174.44729706401355 197.3 2 173.2382079107704 185.56261090317159 2 135.40287153156686 192.0184021080176 2 197.3 188.30877182125207 2 98.363187929329968 192.35520451438529 2 76.767091221059033 2.7 2 151.59969380913594 2.7 2 90.53784350671954 2.7 2 180.14942312505107 11.453385000543079 2 45.312936104629159 2.7 2 15.371528285571561 10.536466458545345 2 45.169611851793 12.595428178061537 2 127.84204007678747 8.7044445929501713 2 100.31450430926321 7.411777495187474 2 42.738806553114379 26.423033073008941 2 49.62559366977078 21.415864411004822 2 92.992974433921333 12.390819976000888 2 44.109179582337354 43.99767957915342 2 95.515895553506766 38.814727167270171 2 173.5573230208945 41.974671435716708 2 133.89090829121986 59.032585745984271 2 121.47812457014686 45.472189100886141 2 197.3 42.970269180332167 2 59.128573791832707 55.783429854113663 2 146.75598356885169 59.701312241713282 2 173.4178947144687 52.935572614278271 2 38.072492727629601 59.083140767812147 2 92.67146785458047 57.335633931239755 2 159.10326147866996 56.706379702241307 2 131.52431257549614 67.945262397238253 2 85.831893996629717 84.481795657689617 2 90.327415467391575 69.478608309301364 2 33.886026711777809 66.781781455501957 2 147.11092285127461 68.807248506680097 2 70.146115386998019 75.919585298246417 2 2.7 80.117196798919281 2 40.908592814763914 96.546646895139247 2 50.235168639818056 86.184740040273695 2 11.619815978809283 84.865861362187147 2 188.54663891482895 90.718931746059141 2 183.13921541195484 97.94238631456092 2 7.5024187889631984 112.50074825410584 2 42.294737696777254 110.430003451977 2 80.899666163840934 124.3334723805626 2 120.11135162657466 127.03190681993448 2 7.7413272013561558 133.27160208519476 2 107.18238211784032 123.60938448303091 2 92.044106973548651 140.65195603642809 2 134.18162102888289 132.69933007588537 2 181.26543441845547 129.1485046698115 2 103.67050943578835 138.25869907967174 2 2.7 144.76774924541968 2 129.01125671638849 139.62033450222879 2 136.50309299165013 153.77031662884659 2 154.3114200038664 153.08423499337724 2 152.82621920961608 164.96831216475692 2 128.86163147570576 171.29557925785085 2 92.658984409962571 175.35455044073854 2 160.49340639616926 170.14134315694625 2 178.45617134851355 173.86249874383674 2 62.354444714921989 176.03111854492349 2 53.986519003540543 178.15151792764681 2 35.664702594462753 187.65608787262207 2 77.497453323204425 177.49385317772283 2 193.31746454324218 185.1267358024358 2 188.95299997751314 188.54761607570995 2 170.9304863368111 180.74349083922721 2 123.44922158150123 184.86061705565623 2 193.08983740394606 194.12991433676405 2 110.84482561565211 189.77616957104559 2 159.25432554155455 7.1351411170149026 2 184.06434237909124 14.675316620475948 2 51.314739524032909 7.0760287862877407 2 7.3664458810719609 17.34956714760396 2 108.74098389784254 14.2635917875388 2 36.022982307608999 24.840043532271064 2 58.730185715130553 30.080700090833083 2 96.123959506470996 17.710540446737475 2 55.337604609951981 32.514634242378619 2 35.387420669978617 44.413452357494897 2 185.44296531572306 36.978439678130897 2 132.56708427185131 47.336081197476538 2 115.09727620810355 57.194969201763264 2 197.3 62.393326876365428 2 74.781739881525127 54.499511729960957 2 138.50592026231521 58.510112510988868 2 179.06335759324548 61.504407350434249 2 26.441905097978179 68.042545962670872 2 83.235636152665094 59.97229162608167 2 118.2184644094161 66.05901945948149 2 73.804152071968275 74.159609494430356 2 115.11855302968291 62.1302527145954 2 94.859793972995419 82.697446015987012 2 29.899831389487701 76.921897379609447 2 142.21790942872929 78.552536257574332 2 65.861741903753455 87.269061345940045 2 12.732759598557438 80.305345350607439 2 37.407272876977267 86.95131646031443 2 55.339953054525452 75.133161137601249 2 17.996875414590583 96.859751631411982 2 184.47256950063013 93.03733975081478 2 120.01023320296181 106.7507125719012 2 192.98164655525088 102.13158228838486 2 160.29809961866522 101.71698402679189 2 22.994814414923315 113.78910675120444 2 100.21385509427121 105.10009430214342 2 192.85615637564365 123.72763518438737 2 90.364029937801277 131.32265282343096 2 112.30176536127721 126.51756172362077 2 7.1574723686541999 128.9410896013589 2 100.51777300732066 135.32634944899547 2 136.83035173711215 136.39357918357902 2 180.97820553027236 133.76756352775641 2 104.74253272135702 141.62993973500048 2 155.4776872692903 142.80359228008038 2 112.1585618664117 153.17337079886767 2 126.90981570470052 147.93384634163263 2 140.91099332740043 153.87852634872402 2 114.10435691123392 161.78510731683846 2 142.71351842601047 172.77790728323532 2 158.30878312493317 183.99813579935997 2 178.98287340519056 169.99536501488916 2 58.730522798590599 193.04434344904968 2 143.91179361076402 177.06848349825134 2 39.724535277130443 179.9462636010125 2 88.791693624418571 193.00317064871479 2 193.23025755609143 172.17504542527382 2 177.75075469631619 185.15565961554728 2 161.2651176434444 197.3 2 128.62097193050701 197.3 2 187.54571831505064 197.3 2 103.00451528218218 191.26422196495673 2 69.220610532663684 2.7 2 165.27945822746261 2.7 2 88.096210680357231 6.2035364911111195 2 186.98830175982218 2.7 2 49.984423627790875 2.7 2 6.8171338606587524 12.228065844401716 2 41.152337913125642 15.221925854637934 2 134.98180999525999 2.7 2 104.985217334661 11.339855333160024 2 36.304621409018026 30.303012436231977 2 46.824332728822235 18.911026367465233 2 128.2541029358342 36.322445127316762 2 53.068524060246638 40.206271647935758 2 82.199341872264839 31.821586930977968 2 181.63556737777171 33.969656749722894 2 126.97151361381768 56.020726782498208 2 113.6015020696876 46.844505469302554 2 197.3 56.288379283910182 2 65.342516298358106 62.35322530496876 2 144.54342212127713 48.964557223184116 2 190.48371073943792 68.204394913110335 2 31.218844010691527 55.530723312140751 2 89.725151826214315 61.503023714409643 2 160.46122627261664 61.304840741099341 2 130.04281988418617 72.659833940253634 2 78.309390465370527 77.727203182682388 2 96.707265829194228 65.772464261309665 2 32.800950417654526 71.737813472126973 2 138.30472901972644 75.408316632087576 2 60.225073302025251 75.577421717341124 2 7.6796000952702181 68.226592957525867 2 43.497878579500984 92.411523523817806 2 45.881500287324442 96.050391154241609 2 23.234430027343784 90.252508388842813 2 175.86439196534616 102.09652412078437 2 23.038234517414534 118.62229015913599 2 53.479448266520698 115.82101341781907 2 185.29891006850508 117.36788246296655 2 75.229614528741294 119.72993196077414 2 122.05433564132814 130.62479916974786 2 2.7 122.97015512685229 2 98.786948452408453 113.86486647835032 2 96.476741824373079 126.30188912783559 2 190.86455405424039 140.8760027154521 2 112.15490722133556 139.24034845931388 2 169.80099571056741 141.51991232156183 2 2.7 154.37131002253142 2 106.98287825456438 147.12544128904668 2 133.7163276610045 139.82650367458899 2 147.54086072669338 142.37338385789391 2 127.50953309993295 157.48095054903109 2 151.92701365738461 144.83482707753254 2 43.064486090799903 156.20789877934902 2 102.40690757313089 179.99002576148729 2 164.82580348335125 171.9663867934178 2 189.86463012999153 170.48324764817642 2 52.373105915150553 182.23009338503229 2 128.80917093208097 180.37260329470766 2 80.828101411623493 181.03433070751083 2 192.62180269032578 175.458442955625 2 174.54318475087422 177.11554629391696 2 162.71097175626852 182.08096697270145 2 122.62049155458106 193.22803583013689 2 197.3 194.12304493562925 2 102.48166809552033 196.45402244451682 2 63.814847026898349 7.2423908789459821 2 76.415584385811627 9.6821615082173071 2 53.042648060161014 11.003984907620701 2 2.7 14.48011072547034 2 132.86919899430353 10.253636557332911 2 57.448826288540232 21.340554114654715 2 47.322531560468605 36.783671274396738 2 44.008081226963832 33.712158468220878 2 9.5208774335637862 31.300276418240603 2 89.009331705948497 38.841836467030568 2 189.18508172656951 45.288816559378851 2 123.82566202812542 52.890111166415764 2 187.04131969035694 56.318047463021266 2 61.862274865239002 59.259450347593202 2 140.11895845965 65.764238288759771 2 17.591004703633764 67.916693534714668 2 70.078431534210651 61.470333769162686 2 146.93726244932793 77.185133887038006 2 122.90703822908557 68.097086213783939 2 80.761386256932255 73.663051635481295 2 104.18322474785421 67.321190049104686 2 87.262149426654005 72.592926216079192 2 73.99249009098088 86.267097418089591 2 11.754258532757044 70.779155348513484 2 48.995681794987121 81.007173662132175 2 60.678448200268654 87.245516845184724 2 11.024332646455852 89.639774919009213 2 181.25461939439739 85.414278823792685 2 116.60456635970525 98.46477412578939 2 178.17304729844105 112.92169738843934 2 20.42292513766489 109.4467134930112 2 103.07440399052612 113.69271063958381 2 91.6358090063828 116.49126935967379 2 16.625614537542543 130.48430897799005 2 92.425365270820407 124.88806022346972 2 147.00905342436079 134.32749829738924 2 185.76420948493777 139.43925745103195 2 98.525469465505921 145.11605427279909 2 165.29025830612923 139.24065988603431 2 130.98569883143963 155.16175237143116 2 119.48624381531141 156.64357111216776 2 143.67970541588531 157.85126434354083 2 142.83797768693401 166.02438471818317 2 106.13588384306082 165.49813909302486 2 155.56916509863626 180.46382137890393 2 47.231908847026986 186.50255306699916 2 141.02606143830349 184.35087065753132 2 85.251708407841718 189.53401842429139 2 197.3 178.37969005904037 2 181.29874850220963 197.3 2 167.26250229580472 193.07820152853813 2 193.35348264434268 191.02727527881493 2 93.547859738244142 194.08653873649936 2 74.244418306579391 6.5217168236797054 2 156.60062634705508 2.7 2 93.129512429162517 6.1277639448552916 2 178.26566781849189 2.7 2 41.996388072795504 6.4005338353708234 2 16.504677255364491 18.960032127137705 2 48.798648694169927 11.206502573816568 2 97.858811606233132 4.6860903243677914 2 44.65292347312171 22.156549559080137 2 55.302021782198473 24.500381492945628 2 101.35959693052246 14.347127610657044 2 39.719917796398235 46.569725990202357 2 174.47964544944929 47.965275276626819 2 135.47469923665966 54.567690871260567 2 123.85844714185953 41.170137617418355 2 197.3 33.951636361474456 2 57.170606559005705 60.603804114352592 2 150.26851086977274 55.362121303399185 2 182.82933781685151 54.41448243838861 2 36.203663238283326 54.428374521475313 2 98.064153977621132 61.447638314995572 2 157.48285900598265 52.230283529809718 2 127.23353100927132 68.883729915085169 2 77.674602744514956 82.974634048555032 2 82.6814221759942 65.983993322067079 2 151.21727670114416 60.0570284465268 2 66.819832050015705 69.692473913195613 2 2.7 83.999034432834691 2 36.781373126473788 98.755642724547229 2 45.718555887277041 84.102004209248463 2 7.5039341372518225 81.773041931233138 2 195.85193769606954 83.969702290461825 2 178.23223780891226 98.193891179155273 2 9.8438633289760311 116.81188988827134 2 82.334050182703024 129.88868511700517 2 126.58409616071498 130.27658133580658 2 11.822271472689119 129.66829604678642 2 103.01082301199207 122.79632290056342 2 96.55982554754992 137.6674915253916 2 127.23319692003841 136.31254402249309 2 177.08779796560898 131.4002242926932 2 106.5645651977112 131.17863787620914 2 7.3759177833493723 147.32861330592632 2 128.80969221565425 143.13097564744697 2 138.00774637741839 150.1615112979849 2 157.92977978574996 151.78309461443007 2 161.37122682419556 165.96927458505621 2 129.10516389392745 167.27082267021061 2 94.049000204915117 170.27626