<?xml version="1.0" ?>
<VTKFile byte_order="LittleEndian" type="UnstructuredGrid" version="0.1">
<UnstructuredGrid>
<Piece NumberOfCells="0" NumberOfPoints="9">
<Points>
<DataArray NumberOfComponents="3" format="ascii" type="Float32">0 0 0 42.140324329539148 142.50110152543431 2.5 193.24351849236388 177.85285423051093 2.5 40.813310064527201 132.399079661717 2.5 45.940921753434267 146.37784767303197 2 39.049322696280299 152.0140572607541 2 181.91834833494465 177.75996601384958 2.5 96.236865357773468 62.510002890227803 2.5 188.34121760520651 180.5746625958642 2 </DataArray>
</Points>
<Cells>
<DataArray Name="connectivity" format="ascii" type="Int32">0</DataArray>
<DataArray Name="offsets" format="ascii" type="Int32">0</DataArray>
<DataArray Name="types" format="ascii" type="UInt8">1</DataArray>
</Cells>
<PointData>
<DataArray Name="Points" NumberOfComponents="3" format="ascii" type="Float32">0 0 0 42.140324329539148 142.50110152543431 2.5 193.24351849236388 177.85285423051093 2.5 40.813310064527201 132.399079661717 2.5 45.940921753434267 146.37784767303197 2 39.049322696280299 152.0140572607541 2 181.91834833494465 177.75996601384958 2.5 96.236865357773468 62.510002890227803 2.5 188.34121760520651 180.5746625958642 2 </DataArray>
<DataArray Name="forces" NumberOfComponents="3" format="ascii" type="Float32">0 0 0 0.0 0.0 0.0 0.0 0.0 0.0 0.0014098001950182872 -0.019372912215792362 0.0 -0.078199350074588017 -0.027514114238515165 0.0 -0.010451509297898112 -0.012920451078422409 0.0 -0.019904346425517062 0.012191649994056884 0.0 0.043989833342826488 -0.0086774270212879798 0.0 -0.00028990800632407702 0.0010901945758335094 0.0 </DataArray>
<DataArray Name="radii" format="ascii" type="Float32">0 2.75 2.75 2.75 2.75 2.75 2.75 2.75 2.75 </DataArray>
</PointData>
<CellData/>
</Piece>
</UnstructuredGrid>
</VTKFile>
