<?xml version="1.0" ?>
<VTKFile byte_order="LittleEndian" type="UnstructuredGrid" version="0.1">
<UnstructuredGrid>
<Piece NumberOfCells="0" NumberOfPoints="259">
<Points>
<DataArray NumberOfComponents="3" format="ascii" type="Float32">19.033509326634842 8.9374793073570231 3.0 7.5230517942429431 6.9007263335568982 3.0 52.820334501139698 8.9413515039564881 3.0 100.13390201630469 8.9674901575810697 3.0 160.21202509261923 8.8594661363169056 3.0 23.865706874761973 14.328849007280105 3.0 188.55388892494952 7.7261654411895986 3.0 171.93541908399874 21.881690780688402 3.0 178.30217742889087 21.723592092288794 3.0 73.240327073548698 19.957471505334688 3.0 97.349746343883581 18.739716713042466 3.0 136.6499618494457 20.761903329294576 3.0 87.633794811135502 25.698130493738308 3.0 96.924843666772432 32.898931238371155 3.0 15.149376886757796 36.839681388259557 3.0 49.868486140458977 36.234597175335466 3.0 102.51665475454138 48.224977340654938 3.0 62.932604295612528 50.281740590505102 3.0 9.2068816178378512 53.906182023916003 3.0 40.247167143701226 57.842469257660206 3.0 129.65758594118907 63.690419454149627 3.0 65.71862656262121 66.425178468977805 3.0 135.58492814310577 68.794736652922282 3.0 45.914538464663494 70.370634050391928 3.0 34.937870260645155 71.456819778073807 3.0 22.730546808468457 75.541227015299683 3.0 181.35182510051129 73.626747534966853 3.0 7.6159791261808216 83.434689985875977 3.0 115.09578826699634 84.587124519677829 3.0 42.955315244259687 90.176983250263419 3.0 61.047442739338209 99.914774311352602 3.0 45.624340413784296 99.186119824952655 3.0 82.949929378216197 115.29816264130314 3.0 105.57956213057631 117.24999787273816 3.0 129.41158571669044 125.62813509980852 3.0 112.54266799722988 125.30743871234004 3.0 134.92933381628049 122.96106000624017 3.0 13.795548703446837 127.39464498991899 3.0 106.02971663223488 131.84957101352549 3.0 99.948442575770912 139.08030980342343 3.0 161.16621844361788 138.63758912015345 3.0 114.16133730825801 140.34572676131322 3.0 185.10618111982117 138.1209679740245 3.0 77.590126699421077 138.60001826561759 3.0 67.267202167234885 138.98061601529915 3.0 56.125029718712788 150.04799893481959 3.0 128.13945340050077 150.09387726118541 3.0 59.974395921208568 154.79992883358778 3.0 186.33910379173633 150.79372327047477 3.0 72.737607974495276 159.5658801517589 3.0 102.36687699146619 151.14476956164853 3.0 178.34127836600476 162.54727833167081 3.0 80.780927613062872 164.51084296159178 3.0 129.26264762644823 167.55791794106506 3.0 113.99129998408809 167.51743250504066 3.0 23.655176102283047 166.97810920445883 3.0 191.0636426525131 172.96114905828045 3.0 15.311933050033049 175.3578599747928 3.0 33.443367789084292 169.69775307823303 3.0 70.934773028682358 168.93270936103471 3.0 56.99027901544661 172.19424082289973 3.0 38.645731928983551 192.48311621380805 3.0 21.809451035527985 195.39886663173388 3.0 129.85040335605922 191.17960909709461 3.0 18.072437320508872 3.0290979429048797 2 3.0290979429048797 10.78574235537705 2 53.653954232083144 3.0290979429048797 2 105.3838364357955 4.5173987041090973 2 158.92418403389996 3.0290979429048797 2 34.472617639163197 8.8699732365054036 2 190.09323438756761 13.499626029844622 2 166.53014225844973 11.610751114421062 2 185.59329517716006 17.555770149064884 2 69.589981185984584 24.687853034419359 2 92.338871490854586 21.999254802774733 2 140.96722479461468 26.732770732339535 2 84.133930988387917 35.575847013245024 2 101.50968984083954 36.690077911094782 2 21.41374358586468 42.901617500421558 2 42.819736427465166 37.075005792358553 2 107.54427904466438 37.189497649017774 2 56.049870117713802 46.449021362606395 2 3.3977124962494365 55.274489946728387 2 34.628383214811407 55.80999294024663 2 136.08203187009727 55.640329881130874 2 70.933854498238418 55.881170706408369 2 98.421181677345075 67.585734682983102 2 140.28769546492362 65.109254789858383 2 51.637603865011059 61.280194087365174 2 42.802099056519445 78.865427425586716 2 20.223343985537323 68.303660722302709 2 189.50044858958626 78.407547366004351 2 3.0290979429048797 79.608967672892476 2 113.25741065328485 74.435930993982439 2 167.30609016403511 83.530105111956075 2 53.546934743605682 91.629585699419877 2 62.81111391939573 93.992142461946685 2 41.228068576646393 103.50094106312078 2 81.065459967376668 109.62802200162162 2 101.52675787092457 121.6404905735842 2 123.42531780460463 116.37268513090547 2 111.11211520619713 119.50630074022173 2 134.18516707872908 129.21998888099759 2 8.4015171926883756 124.75345920368676 2 46.118428628960842 120.97005519845172 2 110.86138710741351 135.36463238022796 2 91.785459678083853 132.55696808274971 2 155.25060076687885 137.79658998091807 2 112.48923048035007 146.08204906866365 2 178.27820711918213 143.35152058480548 2 83.182598985821471 140.7165119252133 2 73.91196967210017 147.71666661956655 2 138.14135315545531 153.07613063741573 2 65.948750206484434 154.90747625488123 2 68.014279808014138 149.1580327248866 2 109.12956669847613 159.50623642120973 2 85.842406672914919 168.8358837757373 2 135.30388189144776 168.36687177351865 2 123.00943055322334 171.05072062780286 2 16.644463824260683 164.84451583505842 2 192.32711131343842 161.0778893418258 2 10.442676831057401 171.8934669506815 2 36.906792135920931 179.48970229288551 2 72.235869755174278 180.19055707153288 2 51.974977050647873 182.84377505306207 2 36.608954685460802 185.57093016224056 2 132.35421863568246 196.60479540140102 2 13.099323792333799 8.9989428764626993 2 47.283170151067772 6.54228277898856 2 99.512821737938651 3.0290979429048797 2 165.48075594748994 5.6441286481960029 2 30.937036982122898 16.588160176880791 2 184.05442070563052 11.657647091532471 2 173.69962534205479 15.961285730058732 2 179.75774523603309 15.928487815775126 2 67.33205990666427 19.066130974975998 2 91.710557307260231 15.976971803149111 2 142.5312627508755 19.707371633209927 2 88.868178578753145 31.544455037299294 2 93.69005630673891 27.87676037521776 2 21.117037538324123 36.869575111486398 2 52.295544965421506 41.694625547569736 2 100.42797265959274 42.633737911561226 2 61.752069530262233 44.402718034198081 2 13.85850249706475 57.69052149550793 2 46.199135796858791 58.367570552516881 2 130.40773245880237 57.762605296209315 2 59.785301588748226 67.114872866431355 2 91.061477346093426 63.41439334927793 2 129.63037585758985 69.664775310807286 2 40.652585093129211 73.201399408961578 2 39.624318946349227 67.172447298526123 2 18.227012583663004 79.467325290781758 2 12.170685259523514 79.570023677514627 2 121.16470602882137 83.616252688090015 2 172.61515968016599 86.450347259175544 2 47.829563298592447 93.632905333576176 2 55.226108084432347 101.26164567085577 2 49.641622526648675 103.60911295882013 2 83.918273097936378 121.19425799439132 2 110.47193063658789 113.48208900523116 2 124.4178385118968 122.34870461734347 2 106.59719025228733 125.90149447487514 2 139.65455276425598 126.61770941513156 2 14.336491563085675 134.64401556971524 2 48.008602585085505 130.14083172471911 2 101.10689288310502 128.4632665672618 2 97.766998395625663 133.51766291144247 2 162.15753749009181 144.52949534536603 2 107.90558701922713 140.91870490805175 2 184.29703805805252 144.04102154748315 2 79.521493745246644 145.54574167427418 2 63.026099866894384 143.1895070489542 2 37.244937769191445 146.45436847560904 2 54.058667003110322 155.61001857531335 2 132.25861228755883 154.51950836503309 2 57.028655036828759 144.0441077755512 2 188.57216618981212 156.32849715959867 2 72.141902504506064 153.62210157770821 2 103.62022524821501 156.98692085941099 2 183.65327944732078 159.80831979374847 2 77.71506035597794 169.63940955994471 2 130.67529950013858 161.75227276827778 2 116.74686856435383 162.21563630395801 2 24.167266813731739 173.28064901829507 2 191.3490767510462 166.99526542565849 2 10.223327162368014 178.49868897092477 2 38.055619620057094 173.53894617119846 2 66.334124362109762 172.75962673127376 2 55.630137353764056 178.01246667881665 2 185.11983946994059 173.49460862932733 2 33.45864699292806 195.4489574678467 2 27.584811272947569 196.93220765381432 2 134.891973555276 187.97269355139031 2 12.041261018633524 3.0290979429048797 2 3.0290979429048797 3.0290979429048797 2 58.574940539095564 6.5595782460287211 2 107.20669534387568 10.294828776886893 2 152.86608956037995 3.0290979429048797 2 28.777448221098918 10.932043441616095 2 192.34354649076826 19.125342443256521 2 167.84653312562912 17.524223724370014 2 184.03605763013229 23.41040006423875 2 72.477127777394259 30.013772564634831 2 85.615474604402152 20.074230743812787 2 146.51469340034365 24.298160032644564 2 89.871103374094957 37.519243549497411 2 95.789070696321488 38.766064721123115 2 26.37963500639027 39.810185169633698 2 46.248858742333418 42.069279495224471 2 106.47712305564403 43.161691147243047 2 57.303134419737681 52.376133900477598 2 3.0290979429048797 49.15824708255461 2 35.983488820220614 62.028489218607518 2 141.05524425782417 59.099864435074096 2 69.515060405682632 61.770887230985977 2 101.97170614120257 62.937577342044747 2 135.28743330800299 61.688831915276779 2 46.456713261444044 64.420251898261114 2 48.102092373324894 75.930843414100806 2 16.86619223060347 73.346603264637963 2 187.25035754759759 72.796008480139321 2 4.7878868277771991 73.812554894036182 2 117.23289835453343 79.007280354105319 2 172.5394179953889 80.392598034007975 2 48.60518917109971 87.624580018236102 2 67.009235303048555 99.521550951081338 2 39.901295053422182 97.469177220119533 2 86.62640854168167 107.22436129795726 2 99.869035826613626 115.49200637671072 2 129.32993016947594 118.00524762584821 2 117.16360416508019 119.22268136145178 2 133.89360198720527 135.27043226697762 2 8.8689902905834792 130.82244437957237 2 43.312296495676705 126.31752811650189 2 114.86089440659109 130.81435088943877 2 90.222020436987663 126.70398617992313 2 153.29018731845409 132.0643738150186 2 106.47439016637566 146.80541356347524 2 179.17964343087846 137.36076519867473 2 88.695905624135165 138.23131731907148 2 72.539000951645917 141.79271884396465 2 51.09797101319257 146.89341432356983 2 133.95046015939246 148.70036785319058 2 66.910740487677984 160.88864243599213 2 62.037384461160329 149.15293469230329 2 108.398597686743 153.26311692436568 2 181.14058099133013 153.74192377846376 2 86.549102958743518 162.81907604644707 2 131.3623064597368 173.15150551295841 2 117.1498180272489 172.58909460585306 2 18.791824751408381 170.51203919886206 2 185.46191597049435 165.59231058541033 2 10.504336052284085 165.90059759412154 2 32.294816377596469 175.5614180623769 2 73.589698851304831 174.28556899593681 2 49.587454527606951 177.19615977376631 2 32.031636796095199 189.53954431968342 2 126.29979643853714 196.84120877242847 2 </DataArray>
</Points>
<Cells>
<DataArray Name="connectivity" format="ascii" type="Int32">0</DataArray>
<DataArray Name="offsets" format="ascii" type="Int32">0</DataArray>
<DataArray Name="types" format="ascii" type="UInt8">1</DataArray>
</Cells>
<PointData>
<DataArray Name="Points" NumberOfComponents="3" format="ascii" type="Float32">19.033509326634842 8.9374793073570231 3.0 7.5230517942429431 6.9007263335568982 3.0 52.820334501139698 8.9413515039564881 3.0 100.13390201630469 8.9674901575810697 3.0 160.21202509261923 8.8594661363169056 3.0 23.865706874761973 14.328849007280105 3.0 188.55388892494952 7.7261654411895986 3.0 171.93541908399874 21.881690780688402 3.0 178.30217742889087 21.723592092288794 3.0 73.240327073548698 19.957471505334688 3.0 97.349746343883581 18.739716713042466 3.0 136.6499618494457 20.761903329294576 3.0 87.633794811135502 25.698130493738308 3.0 96.924843666772432 32.898931238371155 3.0 15.149376886757796 36.839681388259557 3.0 49.868486140458977 36.234597175335466 3.0 102.51665475454138 48.224977340654938 3.0 62.932604295612528 50.281740590505102 3.0 9.2068816178378512 53.906182023916003 3.0 40.247167143701226 57.842469257660206 3.0 129.65758594118907 63.690419454149627 3.0 65.71862656262121 66.425178468977805 3.0 135.58492814310577 68.794736652922282 3.0 45.914538464663494 70.370634050391928 3.0 34.937870260645155 71.456819778073807 3.0 22.730546808468457 75.541227015299683 3.0 181.35182510051129 73.626747534966853 3.0 7.6159791261808216 83.434689985875977 3.0 115.09578826699634 84.587124519677829 3.0 42.955315244259687 90.176983250263419 3.0 61.047442739338209 99.914774311352602 3.0 45.624340413784296 99.186119824952655 3.0 82.949929378216197 115.29816264130314 3.0 105.57956213057631 117.24999787273816 3.0 129.41158571669044 125.62813509980852 3.0 112.54266799722988 125.30743871234004 3.0 134.92933381628049 122.96106000624017 3.0 13.795548703446837 127.39464498991899 3.0 106.02971663223488 131.84957101352549 3.0 99.948442575770912 139.08030980342343 3.0 161.16621844361788 138.63758912015345 3.0 114.16133730825801 140.34572676131322 3.0 185.10618111982117 138.1209679740245 3.0 77.590126699421077 138.60001826561759 3.0 67.267202167234885 138.98061601529915 3.0 56.125029718712788 150.04799893481959 3.0 128.13945340050077 150.09387726118541 3.0 59.974395921208568 154.79992883358778 3.0 186.33910379173633 150.79372327047477 3.0 72.737607974495276 159.5658801517589 3.0 102.36687699146619 151.14476956164853 3.0 178.34127836600476 162.54727833167081 3.0 80.780927613062872 164.51084296159178 3.0 129.26264762644823 167.55791794106506 3.0 113.99129998408809 167.51743250504066 3.0 23.655176102283047 166.97810920445883 3.0 191.0636426525131 172.96114905828045 3.0 15.311933050033049 175.3578599747928 3.0 33.443367789084292 169.69775307823303 3.0 70.934773028682358 168.93270936103471 3.0 56.99027901544661 172.19424082289973 3.0 38.645731928983551 192.48311621380805 3.0 21.809451035527985 195.39886663173388 3.0 129.85040335605922 191.17960909709461 3.0 18.072437320508872 3.0290979429048797 2 3.0290979429048797 10.78574235537705 2 53.653954232083144 3.0290979429048797 2 105.3838364357955 4.5173987041090973 2 158.92418403389996 3.0290979429048797 2 34.472617639163197 8.8699732365054036 2 190.09323438756761 13.499626029844622 2 166.53014225844973 11.610751114421062 2 185.59329517716006 17.555770149064884 2 69.589981185984584 24.687853034419359 2 92.338871490854586 21.999254802774733 2 140.96722479461468 26.732770732339535 2 84.133930988387917 35.575847013245024 2 101.50968984083954 36.690077911094782 2 21.41374358586468 42.901617500421558 2 42.819736427465166 37.075005792358553 2 107.54427904466438 37.189497649017774 2 56.049870117713802 46.449021362606395 2 3.3977124962494365 55.274489946728387 2 34.628383214811407 55.80999294024663 2 136.08203187009727 55.640329881130874 2 70.933854498238418 55.881170706408369 2 98.421181677345075 67.585734682983102 2 140.28769546492362 65.109254789858383 2 51.637603865011059 61.280194087365174 2 42.802099056519445 78.865427425586716 2 20.223343985537323 68.303660722302709 2 189.50044858958626 78.407547366004351 2 3.0290979429048797 79.608967672892476 2 113.25741065328485 74.435930993982439 2 167.30609016403511 83.530105111956075 2 53.546934743605682 91.629585699419877 2 62.81111391939573 93.992142461946685 2 41.228068576646393 103.50094106312078 2 81.065459967376668 109.62802200162162 2 101.52675787092457 121.6404905735842 2 123.42531780460463 116.37268513090547 2 111.11211520619713 119.50630074022173 2 134.18516707872908 129.21998888099759 2 8.4015171926883756 124.75345920368676 2 46.118428628960842 120.97005519845172 2 110.86138710741351 135.36463238022796 2 91.785459678083853 132.55696808274971 2 155.25060076687885 137.79658998091807 2 112.48923048035007 146.08204906866365 2 178.27820711918213 143.35152058480548 2 83.182598985821471 140.7165119252133 2 73.91196967210017 147.71666661956655 2 138.14135315545531 153.07613063741573 2 65.948750206484434 154.90747625488123 2 68.014279808014138 149.1580327248866 2 109.12956669847613 159.50623642120973 2 85.842406672914919 168.8358837757373 2 135.30388189144776 168.36687177351865 2 123.00943055322334 171.05072062780286 2 16.644463824260683 164.84451583505842 2 192.32711131343842 161.0778893418258 2 10.442676831057401 171.8934669506815 2 36.906792135920931 179.48970229288551 2 72.235869755174278 180.19055707153288 2 51.974977050647873 182.84377505306207 2 36.608954685460802 185.57093016224056 2 132.35421863568246 196.60479540140102 2 13.099323792333799 8.9989428764626993 2 47.283170151067772 6.54228277898856 2 99.512821737938651 3.0290979429048797 2 165.48075594748994 5.6441286481960029 2 30.937036982122898 16.588160176880791 2 184.05442070563052 11.657647091532471 2 173.69962534205479 15.961285730058732 2 179.75774523603309 15.928487815775126 2 67.33205990666427 19.066130974975998 2 91.710557307260231 15.976971803149111 2 142.5312627508755 19.707371633209927 2 88.868178578753145 31.544455037299294 2 93.69005630673891 27.87676037521776 2 21.117037538324123 36.869575111486398 2 52.295544965421506 41.694625547569736 2 100.42797265959274 42.633737911561226 2 61.752069530262233 44.402718034198081 2 13.85850249706475 57.69052149550793 2 46.199135796858791 58.367570552516881 2 130.40773245880237 57.762605296209315 2 59.785301588748226 67.114872866431355 2 91.061477346093426 63.41439334927793 2 129.63037585758985 69.664775310807286 2 40.652585093129211 73.201399408961578 2 39.624318946349227 67.172447298526123 2 18.227012583663004 79.467325290781758 2 12.170685259523514 79.570023677514627 2 121.16470602882137 83.616252688090015 2 172.61515968016599 86.450347259175544 2 47.829563298592447 93.632905333576176 2 55.226108084432347 101.26164567085577 2 49.641622526648675 103.60911295882013 2 83.918273097936378 121.19425799439132 2 110.47193063658789 113.48208900523116 2 124.4178385118968 122.34870461734347 2 106.59719025228733 125.90149447487514 2 139.65455276425598 126.61770941513156 2 14.336491563085675 134.64401556971524 2 48.008602585085505 130.14083172471911 2 101.10689288310502 128.4632665672618 2 97.766998395625663 133.51766291144247 2 162.15753749009181 144.52949534536603 2 107.90558701922713 140.91870490805175 2 184.29703805805252 144.04102154748315 2 79.521493745246644 145.54574167427418 2 63.026099866894384 143.1895070489542 2 37.244937769191445 146.45436847560904 2 54.058667003110322 155.61001857531335 2 132.25861228755883 154.51950836503309 2 57.028655036828759 144.0441077755512 2 188.57216618981212 156.32849715959867 2 72.141902504506064 153.62210157770821 2 103.62022524821501 156.98692085941099 2 183.65327944732078 159.80831979374847 2 77.71506035597794 169.63940955994471 2 130.67529950013858 161.75227276827778 2 116.74686856435383 162.21563630395801 2 24.167266813731739 173.28064901829507 2 191.3490767510462 166.99526542565849 2 10.223327162368014 178.49868897092477 2 38.055619620057094 173.53894617119846 2 66.334124362109762 172.75962673127376 2 55.630137353764056 178.01246667881665 2 185.11983946994059 173.49460862932733 2 33.45864699292806 195.4489574678467 2 27.584811272947569 196.93220765381432 2 134.891973555276 187.97269355139031 2 12.041261018633524 3.0290979429048797 2 3.0290979429048797 3.0290979429048797 2 58.574940539095564 6.5595782460287211 2 107.20669534387568 10.294828776886893 2 152.86608956037995 3.0290979429048797 2 28.777448221098918 10.932043441616095 2 192.34354649076826 19.125342443256521 2 167.84653312562912 17.524223724370014 2 184.03605763013229 23.41040006423875 2 72.477127777394259 30.013772564634831 2 85.615474604402152 20.074230743812787 2 146.51469340034365 24.298160032644564 2 89.871103374094957 37.519243549497411 2 95.789070696321488 38.766064721123115 2 26.37963500639027 39.810185169633698 2 46.248858742333418 42.069279495224471 2 106.47712305564403 43.161691147243047 2 57.303134419737681 52.376133900477598 2 3.0290979429048797 49.15824708255461 2 35.983488820220614 62.028489218607518 2 141.05524425782417 59.099864435074096 2 69.515060405682632 61.770887230985977 2 101.97170614120257 62.937577342044747 2 135.28743330800299 61.688831915276779 2 46.456713261444044 64.420251898261114 2 48.102092373324894 75.930843414100806 2 16.86619223060347 73.346603264637963 2 187.25035754759759 72.796008480139321 2 4.7878868277771991 73.812554894036182 2 117.23289835453343 79.007280354105319 2 172.5394179953889 80.392598034007975 2 48.60518917109971 87.624580018236102 2 67.009235303048555 99.521550951081338 2 39.901295053422182 97.469177220119533 2 86.62640854168167 107.22436129795726 2 99.869035826613626 115.49200637671072 2 129.32993016947594 118.00524762584821 2 117.16360416508019 119.22268136145178 2 133.89360198720527 135.27043226697762 2 8.8689902905834792 130.82244437957237 2 43.312296495676705 126.31752811650189 2 114.86089440659109 130.81435088943877 2 90.222020436987663 126.70398617992313 2 153.29018731845409 132.0643738150186 2 106.47439016637566 146.80541356347524 2 179.17964343087846 137.36076519867473 2 88.695905624135165 138.23131731907148 2 72.539000951645917 141.79271884396465 2 51.09797101319257 146.89341432356983 2 133.95046015939246 148.70036785319058 2 66.910740487677984 160.88864243599213 2 62.037384461160329 149.15293469230329 2 108.398597686743 153.26311692436568 2 181.14058099133013 153.74192377846376 2 86.549102958743518 162.81907604644707 2 131.3623064597368 173.15150551295841 2 117.1498180272489 172.58909460585306 2 18.791824751408381 170.51203919886206 2 185.46191597049435 165.59231058541033 2 10.504336052284085 165.90059759412154 2 32.294816377596469 175.5614180623769 2 73.589698851304831 174.28556899593681 2 49.587454527606951 177.19615977376631 2 32.031636796095199 189.53954431968342 2 126.29979643853714 196.84120877242847 2 </DataArray>