<?xml version="1.0" ?>
<VTKFile byte_order="LittleEndian" type="UnstructuredGrid" version="0.1">
<UnstructuredGrid>
<Piece NumberOfCells="0" NumberOfPoints="260">
<Points>
<DataArray NumberOfComponents="3" format="ascii" type="Float32">17.902875464600619 8.3211954015412939 3.0 7.3971915387493459 6.0887089394957075 3.0 52.837766339813271 8.3060611194089375 3.0 100.06617161610109 8.3686931634321233 3.0 160.1774005478641 8.2278568019646663 3.0 24.262643999773491 14.419042002767855 3.0 188.45511197556033 8.4373363757650228 3.0 171.63924186042479 21.669514240860632 3.0 178.38229871978839 21.605973749745207 3.0 72.770034685792368 19.972151614497491 3.0 96.988187235927654 19.286802516845793 3.0 136.90479621081872 20.860369974100102 3.0 88.117576115343226 25.984480179931627 3.0 97.165331440991935 33.186094776764435 3.0 15.696946032295401 37.319997126087749 3.0 50.074600542442255 36.838397538863248 3.0 102.22063395134951 47.751645515612019 3.0 62.810930593503372 50.144908027085911 3.0 9.6999509561880028 54.110795586435955 3.0 40.224525284537179 58.125439078844977 3.0 130.08661094519667 63.893079289589174 3.0 65.984084402958885 66.381121053064945 3.0 135.9640351484575 69.151405512533302 3.0 45.684460712191857 70.288779433924589 3.0 35.485490530103306 71.744934376876657 3.0 22.144026153019919 76.019632259496831 3.0 182.06759039258489 73.719140237566279 3.0 7.3211312467142049 83.444398846618355 3.0 115.21336187947452 84.519737797705332 3.0 43.261898924275435 90.489196044837257 3.0 61.105672876267334 100.11121487929712 3.0 45.852340255350853 98.993097685102313 3.0 82.881749368083263 115.44646935373311 3.0 105.82671269479931 117.6864132935916 3.0 129.32822004646982 125.71978815825416 3.0 112.02269802496615 125.32606045205428 3.0 135.2147537649634 123.48551562995652 3.0 14.019631927757452 129.0031436203947 3.0 106.3885352255767 132.09683670328661 3.0 99.746683644853874 138.67250375871032 3.0 160.87572997961658 139.46042428063004 3.0 113.43471289781674 140.24559516463825 3.0 185.0605802635626 138.39802513081952 3.0 77.452507859598583 139.40999945290667 3.0 67.40391197762662 140.10420116045054 3.0 56.307100662097113 150.04186042695005 3.0 128.52208444901319 150.20754934602641 3.0 59.547608576223624 154.66339431315404 3.0 186.18819378175229 152.03306383931744 3.0 72.378279618739981 158.92500228934136 3.0 102.93845086708092 151.34593997429315 3.0 179.04098233045443 162.32446126754914 3.0 80.881980925390366 164.83676510277755 3.0 129.59789059863468 167.54109764284547 3.0 114.40760704632 167.53644150162725 3.0 23.290713071607641 167.42413722632745 3.0 190.84507654612 172.31042567920187 3.0 14.994898417168137 174.73648304659102 3.0 33.501071750467602 170.22282066159127 3.0 70.936572232273363 169.45843066852791 3.0 56.903322595000702 172.67896932966482 3.0 38.361547959437253 192.77628356432041 3.0 22.013424585477804 195.72539943484412 3.0 130.10982904247132 191.37715029214783 3.0 17.408516214174533 2.8290979429048795 2 2.8290979429048795 9.3256920350317216 2 53.852634371286051 2.8290979429048795 2 104.77011271220589 4.8451790513353181 2 158.80516321466368 2.8290979429048795 2 33.577313901061181 8.2148662359693247 2 189.73165086080979 13.858188924770118 2 166.59776047102937 11.884930619989737 2 185.44307292542618 17.549163448265073 2 69.47068626515707 24.458267748344014 2 92.407828221783589 22.470830905440337 2 141.03661344785019 27.182266889804112 2 85.208404997580416 35.798132890568979 2 101.34956359266613 36.794443550654321 2 21.393445848438375 42.463692834586915 2 43.050449976781977 37.51513548315031 2 107.03821252778667 37.396517319943925 2 56.165022424033872 46.375126163122097 2 4.239742364981705 54.994969942441898 2 35.031509331207531 56.113578086312401 2 136.02059497899282 56.281478238432811 2 70.799587362929657 56.604998562891097 2 98.540732285268305 67.371752892973319 2 139.9582946092865 65.270562305591255 2 51.287200677365199 61.648086799867784 2 42.713675375236342 78.466534675297112 2 20.073288616994891 68.677223242443105 2 188.62914242841097 78.753612963451019 2 2.8290979429048795 80.157498166906208 2 113.53444066189995 74.902317118146499 2 167.93055069510362 83.906712824194031 2 53.108040167308715 91.896021295797141 2 62.735655557254709 94.016346952157974 2 41.208863371622272 103.51548485844324 2 81.399824522739848 110.07812858759128 2 101.66118383297751 121.52347231747316 2 123.63703150048042 116.91437134032263 2 110.95353724879108 119.85598125621182 2 134.75164623162664 129.13072588782848 2 8.4903780974040721 125.70383596522994 2 45.617457026749541 121.94472528293997 2 110.98157828208076 135.24440553074942 2 92.296679070056925 132.47082152212894 2 155.59380842352996 137.69522796599458 2 112.1614531390988 145.78569378733675 2 178.34829272304154 143.41789602972264 2 82.847963868552085 140.79137257515282 2 72.635590566403778 147.79108140716718 2 138.10641804870207 152.94964644891778 2 65.121545534901998 155.07125212736651 2 67.392697897990274 149.87556547472136 2 108.65218027285715 159.34737756008641 2 86.235738518698568 169.08561263896794 2 135.16614293729245 168.53390974564479 2 122.75905613856621 171.24586510922907 2 16.581654476410183 165.33556196937681 2 192.49230329355481 161.25164154916686 2 10.896974771830569 170.95458979218458 2 36.809843942929191 179.35473085548756 2 72.302521588903062 180.01357054983339 2 52.121142585450649 182.64541378738525 2 36.416237628630633 185.88407030570673 2 132.10681327918212 196.57592272180719 2 23.376840684292961 8.934635275463549 2 12.277847709929462 8.4857691410268519 2 47.485825285639457 6.7474613768397695 2 99.482286906310065 2.8290979429048795 2 165.44717505932144 6.3449507697571574 2 30.736087452443225 16.217147713495468 2 184.19239493513803 12.030895353889505 2 173.76930114198373 16.145131772583653 2 179.93428766854612 16.257468219994529 2 67.266021256292731 19.104440259281731 2 91.9039122320427 16.830364317332727 2 142.41587848696508 20.058401030173801 2 89.043854548568873 31.532374209049557 2 94.014878730523662 28.577709260215766 2 21.22104977292695 36.973593121473392 2 52.291582280523357 41.94852568921246 2 100.24964169853808 42.518301783973946 2 61.750040988042983 44.677648121871414 2 13.90097967023109 57.781797373436731 2 45.687881533112943 59.205768326231194 2 130.76008415472469 58.365779765374157 2 60.472067815596596 67.176433218729471 2 91.066603223889061 63.547399475688195 2 130.4000627143491 69.455008225055025 2 40.884151739747701 73.112281842159888 2 39.66325721525812 67.509328413614426 2 17.534133274983521 79.165242189288463 2 12.058237998368504 80.490392153923565 2 120.8895559882226 83.498578764510086 2 172.99876545139281 86.422547524240443 2 47.766871649385003 93.763398335571253 2 55.677816727427277 101.3577378910263 2 49.590107176856073 103.12156935054837 2 83.672775199413707 120.95913312763226 2 110.43894821882402 114.22294313597362 2 124.82217771974024 122.44705724592293 2 106.56446114596953 126.44100338747833 2 139.82365599814443 126.61707532782215 2 14.540752803898704 134.7506651823079 2 47.318993838126886 129.78809943090761 2 101.61943265735619 129.18676786033242 2 97.87245451665278 133.42868725594025 2 162.81415553670823 144.68296643343075 2 107.94566802709167 141.43324673597459 2 183.98897876260907 143.86308273977426 2 79.551070420689697 145.39000094403283 2 63.032170455664378 143.52188750646971 2 36.9096485026529 146.585162368016 2 53.990077899483182 155.10600388397367 2 132.35343710056 154.43751210169637 2 57.46191039011704 144.58485363644257 2 188.87173434211141 156.90916006444837 2 71.814158954062307 153.37802060141604 2 103.56039280834105 156.88049172926821 2 183.97346168288053 159.73955420941701 2 77.873706215506587 169.52349825544781 2 130.30963825244714 162.01994548499854 2 116.83479056637917 162.5243610976618 2 23.742945328188846 173.15258534636186 2 192.07187479445327 166.88898917241303 2 10.700458353190269 178.28219566329454 2 37.81667580544616 173.78520621915197 2 66.469520041465017 172.79522687219665 2 55.416693606303838 178.0460090178114 2 185.46930473719041 173.81393673175199 2 33.383910278493737 195.28347536512257 2 27.407319499304705 197.11142929309631 2 134.70748523516744 188.23442243748801 2 11.707365426110542 2.8290979429048795 2 2.8290979429048795 2.8290979429048795 2 58.156173426647399 6.5036563756908627 2 107.04683025477958 10.023378040462591 2 153.14784334177531 2.8290979429048795 2 28.645783712002764 10.96701157823091 2 192.20088925288161 18.949165618499894 2 168.15562710562611 17.324442351139314 2 184.14992134481446 23.057608406119041 2 72.109687824935236 29.463335393341978 2 85.859741767622523 20.928569515916958 2 145.99422120947921 24.455121663171507 2 90.691022560940382 36.857453287468353 2 96.144422270536481 38.750753853543088 2 25.998759153727057 39.780422196004061 2 46.633593397288969 41.894213603716018 2 105.90956018464141 42.943638184730084 2 57.253031139499036 51.927730763275939 2 2.8290979429048795 49.514357304553528 2 36.183620963511565 61.957688801347196 2 140.57006631471344 59.645516470733256 2 69.582552149744259 62.13047720812758 2 101.7549713010238 62.762976483477843 2 135.30468838864513 61.937603286826672 2 46.583287670084168 64.792654896407612 2 47.756935264322628 75.457916314785294 2 17.125411227470266 73.508765868840044 2 187.61132779379395 73.187713577048072 2 4.5489087778243773 74.772866589562412 2 117.11344477403897 79.284772113950538 2 172.7249545537521 80.770901888477482 2 48.540267100724826 88.158308111199375 2 66.536668203195248 98.878407758574966 2 40.400101296652835 97.858076963801238 2 86.419139100042798 107.46629733157054 2 100.53531443480981 115.94635495792947 2 129.19407200064384 118.11418899468825 2 116.59434613151572 119.40452298936481 2 133.95587925023455 134.73196484907018 2 8.9706768523230629 131.33984507739203 2 42.568904846831863 126.65091091883383 2 114.06884144747463 130.50102552856367 2 90.329189149119784 127.16541510387435 2 152.93191444359721 132.70348470402635 2 106.60965981821697 146.93145217766346 2 179.47198221927601 137.87238122167673 2 88.079152345583807 138.6364647169585 2 72.592533524508994 142.12520531730351 2 51.154963645714432 147.95593988225681 2 133.995186374192 149.022696291165 2 67.008566951347404 160.39994385928702 2 61.731574636007693 149.0636912353811 2 108.15646349765653 153.58073537529071 2 180.90749490441002 153.79534893151208 2 86.26680342210571 163.41589528050073 2 131.26808927825979 172.8545716018366 2 117.2097242681722 172.34974501202862 2 18.702901941869342 170.58103347452209 2 186.50441981420292 165.88819451922583 2 10.923597814775277 165.29643973156351 2 32.49070933266038 175.69953954097261 2 73.385852134629801 174.46005130767708 2 49.741689160710301 177.43506743214022 2 32.271375479054342 189.73573253597132 2 126.47226442873395 197.10098205117058 2 </DataArray>
</Points>
<Cells>
<DataArray Name="connectivity" format="ascii" type="Int32">0</DataArray>
<DataArray Name="offsets" format="ascii" type="Int32">0</DataArray>
<DataArray Name="types" format="ascii" type="UInt8">1</DataArray>
</Cells>
<PointData>
<DataArray Name="Points" NumberOfComponents="3" format="ascii" type="Float32">17.902875464600619 8.3211954015412939 3.0 7.3971915387493459 6.0887089394957075 3.0 52.837766339813271 8.3060611194089375 3.0 100.06617161610109 8.3686931634321233 3.0 160.1774005478641 8.2278568019646663 3.0 24.262643999773491 14.419042002767855 3.0 188.45511197556033 8.4373363757650228 3.0 171.63924186042479 21.669514240860632 3.0 178.38229871978839 21.605973749745207 3.0 72.770034685792368 19.972151614497491 3.0 96.988187235927654 19.286802516845793 3.0 136.90479621081872 20.860369974100102 3.0 88.117576115343226 25.984480179931627 3.0 97.165331440991935 33.186094776764435 3.0 15.696946032295401 37.319997126087749 3.0 50.074600542442255 36.838397538863248 3.0 102.22063395134951 47.751645515612019 3.0 62.810930593503372 50.144908027085911 3.0 9.6999509561880028 54.110795586435955 3.0 40.224525284537179 58.125439078844977 3.0 130.08661094519667 63.893079289589174 3.0 65.984084402958885 66.381121053064945 3.0 135.9640351484575 69.151405512533302 3.0 45.684460712191857 70.288779433924589 3.0 35.485490530103306 71.744934376876657 3.0 22.144026153019919 76.019632259496831 3.0 182.06759039258489 73.719140237566279 3.0 7.3211312467142049 83.444398846618355 3.0 115.21336187947452 84.519737797705332 3.0 43.261898924275435 90.489196044837257 3.0 61.105672876267334 100.11121487929712 3.0 45.852340255350853 98.993097685102313 3.0 82.881749368083263 115.44646935373311 3.0 105.82671269479931 117.6864132935916 3.0 129.32822004646982 125.71978815825416 3.0 112.02269802496615 125.32606045205428 3.0 135.2147537649634 123.48551562995652 3.0 14.019631927757452 129.0031436203947 3.0 106.3885352255767 132.09683670328661 3.0 99.746683644853874 138.67250375871032 3.0 160.87572997961658 139.46042428063004 3.0 113.43471289781674 140.24559516463825 3.0 185.0605802635626 138.39802513081952 3.0 77.452507859598583 139.40999945290667 3.0 67.40391197762662 140.10420116045054 3.0 56.307100662097113 150.04186042695005 3.0 128.52208444901319 150.20754934602641 3.0 59.547608576223624 154.66339431315404 3.0 186.18819378175229 152.03306383931744 3.0 72.378279618739981 158.92500228934136 3.0 102.93845086708092 151.34593997429315 3.0 179.04098233045443 162.32446126754914 3.0 80.881980925390366 164.83676510277755 3.0 129.59789059863468 167.54109764284547 3.0 114.40760704632 167.53644150162725 3.0 23.290713071607641 167.42413722632745 3.0 190.84507654612 172.31042567920187 3.0 14.994898417168137 174.73648304659102 3.0 33.501071750467602 170.22282066159127 3.0 70.936572232273363 169.45843066852791 3.0 56.903322595000702 172.67896932966482 3.0 38.361547959437253 192.77628356432041 3.0 22.013424585477804 195.72539943484412 3.0 130.10982904247132 191.37715029214783 3.0 17.408516214174533 2.8290979429048795 2 2.8290979429048795 9.3256920350317216 2 53.852634371286051 2.8290979429048795 2 104.77011271220589 4.8451790513353181 2 158.80516321466368 2.8290979429048795 2 33.577313901061181 8.2148662359693247 2 189.73165086080979 13.858188924770118 2 166.59776047102937 11.884930619989737 2 185.44307292542618 17.549163448265073 2 69.47068626515707 24.458267748344014 2 92.407828221783589 22.470830905440337 2 141.03661344785019 27.182266889804112 2 85.208404997580416 35.798132890568979 2 101.34956359266613 36.794443550654321 2 21.393445848438375 42.463692834586915 2 43.050449976781977 37.51513548315031 2 107.03821252778667 37.396517319943925 2 56.165022424033872 46.375126163122097 2 4.239742364981705 54.994969942441898 2 35.031509331207531 56.113578086312401 2 136.02059497899282 56.281478238432811 2 70.799587362929657 56.604998562891097 2 98.540732285268305 67.371752892973319 2 139.9582946092865 65.270562305591255 2 51.287200677365199 61.648086799867784 2 42.713675375236342 78.466534675297112 2 20.073288616994891 68.677223242443105 2 188.62914242841097 78.753612963451019 2 2.8290979429048795 80.157498166906208 2 113.53444066189995 74.902317118146499 2 167.93055069510362 83.906712824194031 2 53.108040167308715 91.896021295797141 2 62.735655557254709 94.016346952157974 2 41.208863371622272 103.51548485844324 2 81.399824522739848 110.07812858759128 2 101.66118383297751 121.52347231747316 2 123.63703150048042 116.91437134032263 2 110.95353724879108 119.85598125621182 2 134.75164623162664 129.13072588782848 2 8.4903780974040721 125.70383596522994 2 45.617457026749541 121.94472528293997 2 110.98157828208076 135.24440553074942 2 92.296679070056925 132.47082152212894 2 155.59380842352996 137.69522796599458 2 112.1614531390988 145.78569378733675 2 178.34829272304154 143.41789602972264 2 82.847963868552085 140.79137257515282 2 72.635590566403778 147.79108140716718 2 138.10641804870207 152.94964644891778 2 65.121545534901998 155.07125212736651 2 67.392697897990274 149.87556547472136 2 108.65218027285715 159.34737756008641 2 86.235738518698568 169.08561263896794 2 135.16614293729245 168.53390974564479 2 122.75905613856621 171.24586510922907 2 16.581654476410183 165.33556196937681 2 192.49230329355481 161.25164154916686 2 10.896974771830569 170.95458979218458 2 36.809843942929191 179.35473085548756 2 72.302521588903062 180.01357054983339 2 52.121142585450649 182.64541378738525 2 36.416237628630633 185.88407030570673 2 132.10681327918212 196.57592272180719 2 23.376840684292961 8.934635275463549 2 12.277847709929462 8.4857691410268519 2 47.485825285639457 6.7474613768397695 2 99.482286906310065 2.8290979429048795 2 165.44717505932144 6.3449507697571574 2 30.736087452443225 16.217147713495468 2 184.19239493513803 12.030895353889505 2 173.76930114198373 16.145131772583653 2 179.93428766854612 16.257468219994529 2 67.266021256292731 19.104440259281731 2 91.9039122320427 16.830364317332727 2 142.41587848696508 20.058401030173801 2 89.043854548568873 31.532374209049557 2 94.014878730523662 28.577709260215766 2 21.22104977292695 36.973593121473392 2 52.291582280523357 41.94852568921246 2 100.24964169853808 42.518301783973946 2 61.750040988042983 44.677648121871414 2 13.90097967023109 57.781797373436731 2 45.687881533112943 59.205768326231194 2 130.76008415472469 58.365779765374157 2 60.472067815596596 67.176433218729471 2 91.066603223889061 63.547399475688195 2 130.4000627143491 69.455008225055025 2 40.884151739747701 73.112281842159888 2 39.66325721525812 67.509328413614426 2 17.534133274983521 79.165242189288463 2 12.058237998368504 80.490392153923565 2 120.8895559882226 83.498578764510086 2 172.99876545139281 86.422547524240443 2 47.766871649385003 93.763398335571253 2 55.677816727427277 101.3577378910263 2 49.590107176856073 103.12156935054837 2 83.672775199413707 120.95913312763226 2 110.43894821882402 114.22294313597362 2 124.82217771974024 122.44705724592293 2 106.56446114596953 126.44100338747833 2 139.82365599814443 126.61707532782215 2 14.540752803898704 134.7506651823079 2 47.318993838126886 129.78809943090761 2 101.61943265735619 129.18676786033242 2 97.87245451665278 133.42868725594025 2 162.81415553670823 144.68296643343075 2 107.94566802709167 141.43324673597459 2 183.98897876260907 143.86308273977426 2 79.551070420689697 145.39000094403283 2 63.032170455664378 143.52188750646971 2 36.9096485026529 146.585162368016 2 53.990077899483182 155.10600388397367 2 132.35343710056 154.43751210169637 2 57.46191039011704 144.58485363644257 2 188.87173434211141 156.90916006444837 2 71.814158954062307 153.37802060141604 2 103.56039280834105 156.88049172926821 2 183.97346168288053 159.73955420941701 2 77.873706215506587 169.52349825544781 2 130.30963825244714 162.01994548499854 2 116.83479056637917 162.5243610976618 2 23.742945328188846 173.15258534636186 2 192.07187479445327 166.88898917241303 2 10.700458353190269 178.28219566329454 2 37.81667580544616 173.78520621915197 2 66.469520041465017 172.79522687219665 2 55.416693606303838 178.0460090178114 2 185.46930473719041 173.81393673175199 2 33.383910278493737 195.28347536512257 2 27.407319499304705 197.11142929309631 2 134.70748523516744 188.23442243748801 2 11.707365426110542 2.8290979429048795 2 2.8290979429048795 2.8290979429048795 2 58.156173426647399 6.5036563756908627 2 107.04683025477958 10.023378040462591 2 153.14784334177531 2.8290979429048795 2 28.645783712002764 10.96701157823091 2 192.20088925288161 18.949165618499894 2 168.15562710562611 17.324442351139314 2 184.14992134481446 23.057608406119041 2 72.109687824935236 29.463335393341978 2 85.859741767622523 20.928569515916958 2 145.99422120947921 24.455121663171507 2 90.691022560940382 36.857453287468353 2 96.144422270536481 38.750753853543088 2 25.998759153727057 39.780422196004061 2 46.633593397288969 41.894213603716018 2 105.90956018464141 42.943638184730084 2 57.253031139499036 51.927730763275939 2 2.8290979429048795 49.514357304553528 2 36.183620963511565 61.957688801347196 2 140.57006631471344 59.645516470733256 2 69.582552149744259 62.13047720812758 2 101.7549713010238 62.762976483477843 2 135.30468838864513 61.937603286826672 2 46.583287670084168 64.792654896407612 2 47.756935264322628 75.457916314785294 2 17.125411227470266 73.508765868840044 2 187.61132779379395 73.187713577048072 2 4.5489087778243773 74.772866589562412 2 117.11344477403897 79.284772113950538 2 172.7249545537521 80.770901888477482 2 48.540267100724826 88.158308111199375 2 66.536668203195248 98.878407758574966 2 40.400101296652835 97.858076963801238 2 86.419139100042798 107.46629733157054 2 100.53531443480981 115.94635495792947 2 129.19407200064384 118.11418899468825 2 116.59434613151572 119.40452298936481 2 133.95587925023455 134.73196484907018 2 8.9706768523230629 131.33984507739203 2 42.568904846831863 126.65091091883383 2 114.06884144747463 130.50102552856367 2 90.329189149119784 127.16541510387435 2 152.93191444359721 132.70348470402635 2 106.60965981821697 146.93145217766346 2 179.47198221927601 137.87238122167673 2 88.079152345583807 138.6364647169585 2 72.592533524508994 142.12520531730351 2 51.154963645714432 147.95593988225681 2 133.995186374192 149.022696291165 2 67.008566951347404 160.39994385928702 2 61.731574636007693 149.0636912353811 2 108.15646349765653 153.58073537529071 2 180.90749490441002 153.79534893151208 2 86.26680342210571 163.41589528050073 2 131.26808927825979 172.8545716018366 2 117.2097242681722 172.34974501202862 2 18.702901941869342 170.58103347452209 2 186.50441981420292 165.88819451922583 2 10.923597814775277 165.29643973156351 2 32.49070933266038 175.69953954097261 2 73.385852134629801 174.46005130767708 2 49.741689160710301 177.43506743214022 2 32.271375479054342 189.73573253597132 2 126.47226442873395 197.10098205117058 2 </DataArray>