<?xml version="1.0" ?>
<VTKFile byte_order="LittleEndian" type="UnstructuredGrid" version="0.1">
<UnstructuredGrid>
<Piece NumberOfCells="0" NumberOfPoints="138">
<Points>
<DataArray NumberOfComponents="3" format="ascii" type="Float32">19.361874444472154 8.260330258402103 3.0 10.628836430663272 5.1467119790909397 3.0 51.532446380864968 7.8928918975148106 3.0 99.414727856344328 3.9787488926265766 3.0 161.63725626963151 7.3397188679781884 3.0 25.6319819411003 13.017137770407023 3.0 187.4485622247841 9.9842365295130104 3.0 170.87171105031808 19.304289174483134 3.0 178.94715879367928 20.37001534195139 3.0 71.469988299607024 19.242115487901231 3.0 95.976115024553138 19.725223603366491 3.0 139.14395789027245 21.216089996699157 3.0 89.464961052805265 29.057406045834412 3.0 96.67360760194336 33.315945067963163 3.0 18.958495960393336 36.484980182015988 3.0 50.668356062656933 39.589069539114917 3.0 101.6815492381333 44.298216200898061 3.0 62.476857424698359 48.40081262295265 3.0 10.668614148379813 55.353073965044608 3.0 41.595377742282118 60.529671900141388 3.0 131.57587899375341 62.366456413832879 3.0 65.872780453353258 65.128384658904437 3.0 93.538633477697644 65.630707328135912 3.0 136.73516362061946 70.446134113806664 3.0 44.286496018651228 69.024590446195049 3.0 38.291326340983836 71.265905032059365 3.0 20.267287351198661 76.513619429666122 3.0 182.37579900301145 75.062733720936706 3.0 7.963827829070909 82.920851056772833 3.0 116.2997358948836 83.508351752415194 3.0 176.70690004506062 85.672586600710744 3.0 45.233168602570402 91.858985072240372 3.0 60.635344022272427 100.21070431257314 3.0 46.468933242133609 98.77824519719465 3.0 82.959043952544661 116.53345076084368 3.0 106.81825436163776 117.33252319670292 3.0 127.67119486595867 124.40167515106755 3.0 109.52152328983911 125.56577361375977 3.0 137.93895746743198 125.26491752177417 3.0 13.604546328292587 131.5102522596803 3.0 43.328867515389945 132.75706794371021 3.0 106.163541920692 131.16780060358337 3.0 98.246101039171322 136.02069337842227 3.0 160.32752835116273 140.93430575921502 3.0 111.25232867081631 140.0639133006562 3.0 184.65943817020872 140.15067385154893 3.0 77.330205834803678 142.34971743490772 3.0 66.836315833223438 142.42541103643603 3.0 35.387280522305737 148.12559392833211 3.0 54.108668610448618 150.51456292177201 3.0 130.24082980510522 151.57502827278634 3.0 60.7125963290312 151.87229580851115 3.0 187.99929688134122 154.74278211818694 3.0 70.864337174457589 155.13630547253752 3.0 103.71706440140044 153.54609699348271 3.0 181.0412856366255 161.19507302956677 3.0 80.281500113426688 166.34342547008185 3.0 129.75585497397532 165.50651469292376 3.0 116.91334094720227 166.36822786833304 3.0 22.665776102533627 169.36105982633219 3.0 190.42125613829688 170.05985836362288 3.0 13.669333311725628 175.40243713310909 3.0 34.672588114976513 172.02577765135064 3.0 70.398602404021076 172.10056317476275 3.0 56.022427935160422 175.32053395389593 3.0 185.8560593086427 178.61286153117052 3.0 36.909992897075604 193.3504386026076 3.0 24.131980658296417 195.86693330985506 3.0 131.50229309926848 191.04622975693133 3.0 16.294648723922514 3.0604716305380006 2 4.6178203812119021 4.5756801194233478 2 55.152215701985909 3.0604716305380006 2 104.8251769904894 6.6607236761216404 2 157.37749391245072 3.0604716305380006 2 30.363164385559948 9.2644971639970759 2 189.90453851218504 15.500951796594745 2 167.89660780618848 14.049319216505847 2 184.79812854801418 18.875954219256233 2 69.836946107753292 25.055823288638237 2 90.539090901030434 22.353043738265377 2 142.0655838772696 26.500978847429835 2 87.878073819828046 34.883874743277865 2 99.367544103529056 38.720456023910266 2 23.625557507698982 40.317014042045329 2 44.646722123411159 39.13525526710638 2 105.45203718545092 39.387462684312034 2 56.450320299345428 48.018380418021295 2 4.9737232046045916 53.344550698816057 2 36.150438739910165 57.918429316059388 2 136.33032037761865 58.575860800324399 2 69.719920545074373 60.473767415011366 2 99.577397869303155 65.622124861332068 2 137.83628134695513 64.508688691766864 2 48.081317797289167 64.327214523959128 2 43.129600013047288 74.951444965052175 2 19.355049901213654 70.544216494085433 2 187.9191102338325 77.458072772246041 2 3.0604716305380006 79.396211280628918 2 115.27675329884467 77.55692711786962 2 171.0616449885344 83.528503336249514 2 51.263269770158715 91.536760800770082 2 63.356998752496693 94.820097766797275 2 41.455542563551781 102.14452838141777 2 83.098824754459116 110.49636455143019 2 101.56844845366503 120.3167309154435 2 125.38044264659874 118.81433205779219 2 112.16622760667032 120.13700888680239 2 134.73434579428971 130.383160638004 2 8.1283154316926751 128.96528787101019 2 41.914878373037041 126.77420932196422 2 111.48110952146391 134.0295297198233 2 93.993224764631819 131.73362072147634 2 155.79674501099848 136.94206943142024 2 110.76436634959566 146.08288359828157 2 178.99586434971067 142.24587793522286 2 83.029124112932024 140.35264982671592 2 71.152165350476153 146.65154043016821 2 41.167133765745611 149.99003310948964 2 48.281222549302129 148.93213086002837 2 136.24478369773706 152.22193338764095 2 64.670771825804607 156.59519188274271 2 190.14972836704004 149.09994489490734 2 66.656282702121814 150.80522434238841 2 108.0956550594058 157.70468959460425 2 177.48743338884265 156.31285193938629 2 86.146648416542661 167.78077857733496 2 134.00205548014426 169.80019957119384 2 120.62205024033513 171.13387829104602 2 16.980571257610706 167.3252812421685 2 190.99586258046517 164.04967887928075 2 11.38493447751072 169.8124934358334 2 35.790027386790833 177.96019236944048 2 72.45114026981463 177.7797388968159 2 52.532936015017192 180.24896115856578 2 191.68403364486352 180.21787931524517 2 34.264690768050848 187.92205358772233 2 23.019453149471243 189.90793547663137 2 130.09765751583407 196.91931574989192 2 </DataArray>
</Points>
<Cells>
<DataArray Name="connectivity" format="ascii" type="Int32">0</DataArray>
<DataArray Name="offsets" format="ascii" type="Int32">0</DataArray>
<DataArray Name="types" format="ascii" type="UInt8">1</DataArray>
</Cells>
<PointData>
<DataArray Name="Points" NumberOfComponents="3" format="ascii" type="Float32">19.361874444472154 8.260330258402103 3.0 10.628836430663272 5.1467119790909397 3.0 51.532446380864968 7.8928918975148106 3.0 99.414727856344328 3.9787488926265766 3.0 161.63725626963151 7.3397188679781884 3.0 25.6319819411003 13.017137770407023 3.0 187.4485622247841 9.9842365295130104 3.0 170.87171105031808 19.304289174483134 3.0 178.94715879367928 20.37001534195139 3.0 71.469988299607024 19.242115487901231 3.0 95.976115024553138 19.725223603366491 3.0 139.14395789027245 21.216089996699157 3.0 89.464961052805265 29.057406045834412 3.0 96.67360760194336 33.315945067963163 3.0 18.958495960393336 36.484980182015988 3.0 50.668356062656933 39.589069539114917 3.0 101.6815492381333 44.298216200898061 3.0 62.476857424698359 48.40081262295265 3.0 10.668614148379813 55.353073965044608 3.0 41.595377742282118 60.529671900141388 3.0 131.57587899375341 62.366456413832879 3.0 65.872780453353258 65.128384658904437 3.0 93.538633477697644 65.630707328135912 3.0 136.73516362061946 70.446134113806664 3.0 44.286496018651228 69.024590446195049 3.0 38.291326340983836 71.265905032059365 3.0 20.267287351198661 76.513619429666122 3.0 182.37579900301145 75.062733720936706 3.0 7.963827829070909 82.920851056772833 3.0 116.2997358948836 83.508351752415194 3.0 176.70690004506062 85.672586600710744 3.0 45.233168602570402 91.858985072240372 3.0 60.635344022272427 100.21070431257314 3.0 46.468933242133609 98.77824519719465 3.0 82.959043952544661 116.53345076084368 3.0 106.81825436163776 117.33252319670292 3.0 127.67119486595867 124.40167515106755 3.0 109.52152328983911 125.56577361375977 3.0 137.93895746743198 125.26491752177417 3.0 13.604546328292587 131.5102522596803 3.0 43.328867515389945 132.75706794371021 3.0 106.163541920692 131.16780060358337 3.0 98.246101039171322 136.02069337842227 3.0 160.32752835116273 140.93430575921502 3.0 111.25232867081631 140.0639133006562 3.0 184.65943817020872 140.15067385154893 3.0 77.330205834803678 142.34971743490772 3.0 66.836315833223438 142.42541103643603 3.0 35.387280522305737 148.12559392833211 3.0 54.108668610448618 150.51456292177201 3.0 130.24082980510522 151.57502827278634 3.0 60.7125963290312 151.87229580851115 3.0 187.99929688134122 154.74278211818694 3.0 70.864337174457589 155.13630547253752 3.0 103.71706440140044 153.54609699348271 3.0 181.0412856366255 161.19507302956677 3.0 80.281500113426688 166.34342547008185 3.0 129.75585497397532 165.50651469292376 3.0 116.91334094720227 166.36822786833304 3.0 22.665776102533627 169.36105982633219 3.0 190.42125613829688 170.05985836362288 3.0 13.669333311725628 175.40243713310909 3.0 34.672588114976513 172.02577765135064 3.0 70.398602404021076 172.10056317476275 3.0 56.022427935160422 175.32053395389593 3.0 185.8560593086427 178.61286153117052 3.0 36.909992897075604 193.3504386026076 3.0 24.131980658296417 195.86693330985506 3.0 131.50229309926848 191.04622975693133 3.0 16.294648723922514 3.0604716305380006 2 4.6178203812119021 4.5756801194233478 2 55.152215701985909 3.0604716305380006 2 104.8251769904894 6.6607236761216404 2 157.37749391245072 3.0604716305380006 2 30.363164385559948 9.2644971639970759 2 189.90453851218504 15.500951796594745 2 167.89660780618848 14.049319216505847 2 184.79812854801418 18.875954219256233 2 69.836946107753292 25.055823288638237 2 90.539090901030434 22.353043738265377 2 142.0655838772696 26.500978847429835 2 87.878073819828046 34.883874743277865 2 99.367544103529056 38.720456023910266 2 23.625557507698982 40.317014042045329 2 44.646722123411159 39.13525526710638 2 105.45203718545092 39.387462684312034 2 56.450320299345428 48.018380418021295 2 4.9737232046045916 53.344550698816057 2 36.150438739910165 57.918429316059388 2 136.33032037761865 58.575860800324399 2 69.719920545074373 60.473767415011366 2 99.577397869303155 65.622124861332068 2 137.83628134695513 64.508688691766864 2 48.081317797289167 64.327214523959128 2 43.129600013047288 74.951444965052175 2 19.355049901213654 70.544216494085433 2 187.9191102338325 77.458072772246041 2 3.0604716305380006 79.396211280628918 2 115.27675329884467 77.55692711786962 2 171.0616449885344 83.528503336249514 2 51.263269770158715 91.536760800770082 2 63.356998752496693 94.820097766797275 2 41.455542563551781 102.14452838141777 2 83.098824754459116 110.49636455143019 2 101.56844845366503 120.3167309154435 2 125.38044264659874 118.81433205779219 2 112.16622760667032 120.13700888680239 2 134.73434579428971 130.383160638004 2 8.1283154316926751 128.96528787101019 2 41.914878373037041 126.77420932196422 2 111.48110952146391 134.0295297198233 2 93.993224764631819 131.73362072147634 2 155.79674501099848 136.94206943142024 2 110.76436634959566 146.08288359828157 2 178.99586434971067 142.24587793522286 2 83.029124112932024 140.35264982671592 2 71.152165350476153 146.65154043016821 2 41.167133765745611 149.99003310948964 2 48.281222549302129 148.93213086002837 2 136.24478369773706 152.22193338764095 2 64.670771825804607 156.59519188274271 2 190.14972836704004 149.09994489490734 2 66.656282702121814 150.80522434238841 2 108.0956550594058 157.70468959460425 2 177.48743338884265 156.31285193938629 2 86.146648416542661 167.78077857733496 2 134.00205548014426 169.80019957119384 2 120.62205024033513 171.13387829104602 2 16.980571257610706 167.3252812421685 2 190.99586258046517 164.04967887928075 2 11.38493447751072 169.8124934358334 2 35.790027386790833 177.96019236944048 2 72.45114026981463 177.7797388968159 2 52.532936015017192 180.24896115856578 2 191.68403364486352 180.21787931524517 2 34.264690768050848 187.92205358772233 2 23.019453149471243 189.90793547663137 2 130.09765751583407 196.91931574989192 2 </DataArray>
<DataArray Name="forces" NumberOfComponents="3" format="ascii" type="Float32">0.0017808713256633065 0.0030203363913859529 0.0 -0.00097189649468680138 0.00099015515625460468 0.0 -0.0010617055208415537 0.0014190983264108757 0.0 0.0 0.0 0.0 0.00098112544193908755 0.00098680150559884755 0.0 -1.3794952979049354e-05 1.0941768008400893e-05 0.0 0.0 0.0 0.0 0.0 0.0 0.0 0.0 0.0 0.0 -1.5458297843287116e-07 -9.4119992661420935e-07 0.0 -0.00024023729771164209 -0.00030620170602310194 0.0 0.0 0.0 0.0 0.0 0.0 0.0 0.0 0.0 0.0 0.0 0.0 0.0 -1.7943646202096793e-06 -7.4124928509391313e-07 0.0 0.0 0.0 0.0 7.6895987119331413e-05 4.8807505638565005e-06 0.0 0.0 0.0 0.0 0.0 0.0 0.0 0.0 0.0 0.0 0.0 0.0 0.0 0.0 0.0 0.0 -8.4943744427108569e-06 -7.3326370899643505e-06 0.0 0.0 0.0 0.0 0.0 0.0 0.0 0.0 0.0 0.0 0.0 0.0 0.0 0.0 0.0 0.0 0.0 0.0 0.0 -2.7926451740040242e-05 -0.00016456116301566713 0.0 0.0 0.0 0.0 0.0 0.0 0.0 0.0 0.0 0.0 0.0 0.0 0.0 0.0 0.0 0.0 0.0 0.0 0.0 0.0 0.0 0.0 0.0 0.0 0.0 0.0 0.0 0.0 0.00068372710479010224 -0.0018769347929737819 0.0 -1.3015359769801625e-05 -7.0045562843877158e-06 0.0 0.0 0.0 0.0 0.0 0.0 0.0 1.3222225371342953e-06 3.1947051566083134e-06 0.0 0.0 0.0 0.0 0.0 0.0 0.0 0.0 0.0 0.0 0.0 0.0 0.0 0.0018993062098522479 0.00051668915091490457 0.0 0.0 0.0 0.0 0.0 0.0 0.0 0.0 0.0 0.0 0.0 0.0 0.0 0.0 0.0 0.0 0.0 0.0 0.0 0.0 0.0 0.0 0.0 0.0 0.0 0.0 0.0 0.0 0.0 0.0 0.0 -0.0038224140157226754 -0.0020690118156620869 0.0 0.0 0.0 0.0 0.0 0.0 0.0 0.0 0.0 0.0 0.0 0.0 0.0 0.0 0.0 0.0 0.00023170526099628344 0.00047439863472998375 0.0 0.0 0.0 0.0 0.0 0.0 0.0 0.00055425967685159179 -0.0038813747670860105 0.0 -0.0013632345078280969 -0.00012911678055454713 0.0 0.0010617055208415537 -0.0014190983264108757 0.0 0.0 0.0 0.0 -0.00098112544193908755 -0.00098680150559884755 0.0 1.3794952979049354e-05 -1.0941768008400893e-05 0.0 0.0 0.0 0.0 0.0 0.0 0.0 0.0 0.0 0.0 1.3069803942489567e-06 1.3643588172173375e-05 0.0 -0.00031256657935999451 0.00015103124695128793 0.0 0.0 0.0 0.0 0.0 0.0 0.0 0.0 0.0 0.0 0.0 0.0 0.0 0.0 0.0 0.0 0.0 0.0 0.0 5.1821447222406735e-05 5.7059733532497259e-05 0.0 0.0 0.0 0.0 0.0 0.0 0.0 -3.9059530866417958e-06 -1.5387747682002594e-05 0.0 0.0 0.0 0.0 0.0 0.0 0.0 3.9059530866417958e-06 1.5387747682002594e-05 0.0 0.0 0.0 0.0 0.0 0.0 0.0 0.0 0.0 0.0 0.0 0.0 0.0 0.0 0.0 0.0 0.0 0.0 0.0 -0.0002338544112147877 -8.8828603633019678e-05 0.0 0.0 0.0 0.0 0.0 0.0 0.0 0.0 0.0 0.0 0.0 0.0 0.0 0.0 0.0 0.0 0.0 0.0 0.0 0.0 0.0 0.0 0.0 0.0 0.0 0.0 0.0 0.0 0.0 0.0 0.0 1.4404212964179121e-05 -2.9631189312428467e-05 0.0 0.0 0.0 0.0 0.0 0.0 0.0 -2.7110757315117908e-06 3.3441040440207871e-05 0.0 0.0 0.0 0.0 0.0 0.0 0.0 0.0 0.0 0.0 0.0 0.0 0.0 0.00033963871176694461 0.0019130950217684014 0.0 0.0 0.0 0.0 0.0 0.0 0.0 0.0 0.0 0.0 0.0 0.0 0.0 0.0 0.0 0.0 0.0 0.0 0.0 0.0 0.0 0.0 0.0 0.0 0.0 0.0 0.0 0.0 0.0 0.0 0.0 0.00026682899115192414 -0.0028220667615014767 0.0 0.0 0.0 0.0 0.0 0.0 0.0 0.0 0.0 0.0 0.0 0.0 0.0 -0.00055157204150401047 0.0047311547064592431 0.0 0.0031866117199140088 -0.0012937747629013798 0.0 -0.0011616757822899134 -0.00021054480431472909 0.0 0.0 0.0 0.0 </DataArray>
<DataArray Name="radii" format="ascii" type="Float32">3.0604716305380006 3.0604716305380006 3.0604716305380006 3.0604716305380006 3.0604716305380006 3.0604716305380006 3.0604716305380006 3.0604716305380006 3.0604716305380006 3.0604716305380006 3.0604716305380006 3.0604716305380006 3.0604716305380006 3.0604716305380006 3.0604716305380006 3.0604716305380006 3.0604716305380006 3.0604716305380006 3.0604716305380006 3.0604716305380006 3.0604716305380006 3.0604716305380006 3.0604716305380006 3.0604716305380006 3.0604716305380006 3.0604716305380006 3.0604716305380006 3.0604716305380006 3.0604716305380006 3.0604716305380006 3.0604716305380006 3.0604716305380006 3.0604716305380006 3.0604716305380006 3.0604716305380006 3.0604716305380006 3.0604716305380006 3.0604716305380006 3.0604716305380006 3.0604716305380006 3.0604716305380006 3.0604716305380006 3.0604716305380006 3.0604716305380006 3.0604716305380006 3.0604716305380006 3.0604716305380006 3.0604716305380006 3.0604716305380006 3.0604716305380006 3.0604716305380006 3.0604716305380006 3.0604716305380006 3.0604716305380006 3.0604716305380006 3.0604716305380006 3.0604716305380006 3.0604716305380006 3.0604716305380006 3.0604716305380006 3.0604716305380006 3.0604716305380006 3.0604716305380006 3.0604716305380006 3.0604716305380006 3.0604716305380006 3.0604716305380006 3.0604716305380006 3.0604716305380006 3.0604716305380006 3.0604716305380006 3.0604716305380006 3.0604716305380006 3.0604716305380006 3.0604716305380006 3.0604716305380006 3.0604716305380006 3.0604716305380006 3.0604716305380006 3.0604716305380006 3.0604716305380006 3.0604716305380006 3.0604716305380006 3.0604716305380006 3.0604716305380006 3.0604716305380006 3.0604716305380006 3.0604716305380006 3.0604716305380006 3.0604716305380006 3.0604716305380006 3.0604716305380006 3.0604716305380006 3.0604716305380006 3.0604716305380006 3.0604716305380006 3.0604716305380006 3.0604716305380006 3.0604716305380006 3.0604716305380006 3.0604716305380006 3.0604716305380006 3.0604716305380006 3.0604716305380006 3.0604716305380006 3.0604716305380006 3.0604716305380006 3.0604716305380006 3.0604716305380006 3.0604716305380006 3.0604716305380006 3.0604716305380006 3.0604716305380006 3.0604716305380006 3.0604716305380006 3.0604716305380006 3.0604716305380006 3.0604716305380006 3.0604716305380006 3.0604716305380006 3.0604716305380006 3.0604716305380006 3.0604716305380006 3.0604716305380006 3.0604716305380006 3.0604716305380006 3.0604716305380006 3.0604716305380006 3.0604716305380006 3.0604716305380006 3.0604716305380006 3.0604716305380006 3.0604716305380006 3.0604716305380006 3.0604716305380006 3.0604716305380006 3.0604716305380006 3.0604716305380006 </DataArray>
</PointData>
<CellData/>
</Piece>
</UnstructuredGrid>
</VTKFile>
