<?xml version="1.0" ?>
<VTKFile byte_order="LittleEndian" type="UnstructuredGrid" version="0.1">
<UnstructuredGrid>
<Piece NumberOfCells="0" NumberOfPoints="461">
<Points>
<DataArray NumberOfComponents="3" format="ascii" type="Float32">86.351050160722622 6.9151242898756911 3.0 125.70311004059725 9.4644299669960166 3.0 5.3972656356607676 22.549555634136087 3.0 196.99580336947147 37.656823947664755 3.0 146.57381277092153 35.45570524800825 3.0 49.938843119464437 48.428536112388365 3.0 11.156297448635716 45.145183283927665 3.0 155.14166919466933 41.583512653050434 3.0 196.40935705737178 54.252570359370807 3.0 19.100012701891991 52.516692080460473 3.0 81.851340955741392 65.873483510933156 3.0 183.59995118760261 63.813690361755008 3.0 99.991648181159846 74.931155992686627 3.0 173.09529345948232 74.084122229164649 3.0 141.97924268895105 77.309950898751012 3.0 136.7872321932424 79.562776463295734 3.0 70.634658592446456 81.695843733979117 3.0 86.554115829227911 82.884584052873478 3.0 183.2792167583105 87.543907668539561 3.0 8.6633344712345455 97.595413133407973 3.0 180.5517431028849 104.40877449160001 3.0 74.996200444323421 104.22087236201887 3.0 134.17071882498485 99.013674181743383 3.0 162.45148204284939 109.43830047913073 3.0 3.0041966305285395 112.15628033891734 3.0 186.67410852519484 113.45550516960465 3.0 141.61679631542782 116.01645182327721 3.0 181.57557271656586 129.83314642560151 3.0 36.625620714975788 115.13419010845696 3.0 66.594507514453866 123.23335607374892 3.0 26.717671778725659 126.04349806432849 3.0 3.0041966305285395 131.15224843344876 3.0 196.99580336947147 134.67280034798583 3.0 11.51307162932522 149.66123037183243 3.0 19.143729695964094 157.67434109757812 3.0 167.33547340296201 151.44931392645168 3.0 32.40781843349567 154.53049036959311 3.0 161.07160508877814 159.93382599191563 3.0 41.275433986373123 165.82520658058712 3.0 146.22398742071672 162.10271396268996 3.0 166.03792121840479 165.87375589341269 3.0 97.238400957928135 167.54973033291751 3.0 103.08394670802642 170.72036992311118 3.0 147.16005540840368 179.28747719771681 3.0 186.29156193955632 183.38454566679104 3.0 194.99840737370053 192.9559404989057 3.0 92.04561307585854 196.99580336947147 3.0 14.532397133629257 196.99580336947147 3.0 187.76595887382834 196.99580336947147 3.0 93.082707678999881 7.3799544925999463 2 119.98367797826802 12.813321643996209 2 74.278719404115421 8.7929458776896166 2 14.732315504451124 26.37979508771696 2 104.59248354572802 25.307864973988234 2 134.64767551598237 37.025722049368717 2 24.763543436659987 29.464086999261635 2 182.20977960585071 34.099781117547053 2 195.83576434327395 31.191426011913581 2 118.21497972309496 40.157882228979574 2 73.592627663032033 40.651511696182588 2 138.8858035315823 40.436330800989751 2 29.252548096267631 33.808540235483427 2 161.78969228560919 54.952684894885316 2 188.98367567679824 55.518437114941044 2 26.22849139253114 58.197716463638159 2 91.024041223727565 49.08167534434083 2 82.782987533952536 56.261187437104212 2 196.99580336947147 68.331891496153546 2 78.265878811436195 73.728591238032791 2 105.43395397556492 76.387933062091236 2 172.50278241387224 62.509561073392796 2 150.88626443716953 71.172107286117765 2 138.00230756590759 85.441506492051104 2 74.765496142993243 89.554959012725334 2 94.232641842111249 83.19573593290977 2 171.483685198351 97.223742741438116 2 69.911231198728686 87.128279712765831 2 190.28711135151332 93.733484110379123 2 3.0041966305285395 92.165248443819479 2 196.34730350499709 106.54870110715625 2 74.277582411855775 109.41190678842651 2 153.67646919862054 106.1630294713292 2 7.9174720704008203 109.51607704647874 2 193.52198679318755 121.53600915538298 2 151.57785282070338 123.62126113806758 2 176.76324794443983 118.11020092574144 2 70.275236918283994 118.80243451172957 2 27.689680513930103 131.19844403637069 2 21.612933462161639 139.58941850687947 2 3.0041966305285395 146.40057234383272 2 16.618674401225807 137.46314805197213 2 142.47262665683397 140.62202691974167 2 156.59324926910122 149.33713436746322 2 8.25604500993329 153.79718829832458 2 153.50019543462639 154.18532010334332 2 156.26708870757994 169.8879967404805 2 92.251714681584161 177.76056770419839 2 175.8952603979576 181.25199935855039 2 106.01912307586279 177.34977719927534 2 151.90503919334023 185.47323184276399 2 191.55088821420063 182.6953440928981 2 196.99580336947147 189.70791383520327 2 88.470707562089345 188.32902787859948 2 12.921425941818931 189.86338636901951 2 173.33526594797056 196.99580336947147 2 28.398134436465263 2.7106201419845966 2 82.645615191903531 14.858909826679273 2 122.8534139869796 3.0041966305285395 2 77.915109974297181 13.148228827893675 2 2.8041966305285393 18.23899565326451 2 25.939807479766159 23.621662264604829 2 55.802773339157532 17.397403078042149 2 126.92598421782145 31.619608843312168 2 19.163518980624328 29.690448122728164 2 172.04812600738782 38.130506333018822 2 188.71381151572308 31.51117020993863 2 69.812453646680623 36.611405051899155 2 144.72760726240261 41.059047822647202 2 31.984391355924039 39.88243296227536 2 11.185274779473062 40.201792850888637 2 153.47590702421445 52.06748148608888 2 192.81593025107674 45.784029129667282 2 106.79751153513429 58.784241760916508 2 88.1078360200883 56.956695900874259 2 75.297407017956942 62.867603993255571 2 191.68571412037272 68.647958079334629 2 72.326707089216058 72.778853694795686 2 92.240421697230758 70.362739470473755 2 75.596241354330786 83.944656170213079 2 79.961423521181175 90.034453282543012 2 187.17959234961489 83.615715855079586 2 60.333920486577846 84.799069445218137 2 179.51655938264426 93.441030904341574 2 14.47855179381869 92.446360654548016 2 177.13905592927614 98.849025901342273 2 137.81467033480058 104.22091658495999 2 168.1399571500107 109.92832616688351 2 8.0205458042261633 115.03878554916523 2 194.07784380028539 111.78212826050191 2 146.63912273640838 113.30813697154838 2 191.07234200147934 126.44715856977157 2 26.236715823510231 120.50270964410404 2 81.558344657557996 129.64013223971824 2 31.836594836053631 128.43970413601198 2 150.38005918387293 138.07757862861683 2 25.373359957053598 135.6857013385999 2 28.283717633218501 146.91211139281387 2 194.90419168628472 139.03953978088296 2 42.970895212807655 135.64120646316204 2 12.429078820258699 145.22629512329331 2 196.87033922458286 148.17537412376632 2 23.254512909999644 149.04313697362934 2 26.553478285684594 157.87975008653515 2 166.41770026806753 159.82552240359129 2 3.0041966305285395 162.0451528700886 2 122.11950835815716 157.56172075899366 2 46.204668147042071 157.05098708056599 2 50.109927008957015 166.18704219403472 2 140.8196688979659 161.58456369849324 2 92.776874271928719 164.99751793840048 2 160.82700070796471 165.05021888159038 2 108.05480120996997 172.25627428123354 2 153.06356442413198 179.71975815646147 2 30.469444399295259 180.66428931846514 2 177.11959529430158 186.88443160959082 2 190.10518214343676 192.27434776341698 2 87.057362577983042 193.97396948088721 2 9.4101979746320659 194.45913668745186 2 179.33076170837742 191.92625582816976 2 114.68891867919447 15.33080255919527 2 68.310086048085779 10.031761598762854 2 10.776136335731968 21.308051355894293 2 62.51247708016777 29.320102307810245 2 114.86820767753927 21.285286789316125 2 136.69538598270225 31.751831197040744 2 36.970429912649962 24.069934740572087 2 179.09986515189115 39.267730716448817 2 119.93736423842986 32.971949659534992 2 69.018508546619259 44.158036777252498 2 140.76471426596831 45.440628200786485 2 34.952753542337454 35.394004117405416 2 160.09270780098495 44.054432884997986 2 187.5193658490864 46.464480162771949 2 24.356433783442881 63.184100850044096 2 95.667938436621313 54.220018577227812 2 87.320692644448457 67.343671959268221 2 193.56602253064108 58.521302713418891 2 88.313591296432847 73.706976131583573 2 146.44760149089836 67.057216092253952 2 132.56980881172214 83.310446796180756 2 80.842546555024228 99.788542233756559 2 89.18968199146039 93.271495170814362 2 188.40679216933094 98.631429499810949 2 194.50141991584809 97.586511639925845 2 69.896744544849142 112.74013247009287 2 126.92404004532092 109.19590531185625 2 159.33904566292946 104.67000674224604 2 3.0041966305285395 106.5213794149209 2 187.46580320157108 120.47249263236205 2 173.55721387246879 123.15063852551481 2 56.225231718704876 126.64993542158318 2 34.148587411385819 139.4312300902937 2 146.07412784369882 129.18807163892902 2 20.382597005383229 145.03947203018777 2 3.0041966305285395 136.31706027713034 2 38.106298313063576 135.5157607222184 2 190.18921211376735 139.31381646977508 2 12.06533246801 140.31508461603551 2 173.27761743152033 149.34277294282495 2 18.775364894536619 152.4104076312216 2 161.9563081408235 150.33416131882421 2 36.243812478331606 157.60142736467586 2 3.0041966305285395 156.64399341425894 2 126.19569848405098 159.53269686390306 2 40.878217392552841 160.53686593586426 2 45.141233053344422 152.29175310961355 2 143.77061096209505 156.85002096777993 2 165.13808359055932 175.19794147603739 2 95.776827129745925 182.52825451827132 2 174.83384869676732 175.58564437039266 2 106.24669226797563 185.32762265993495 2 158.98747310801588 180.33659431418249 2 196.99580336947147 184.73318517471847 2 80.789187497402779 189.3491502127612 2 19.825633245040652 182.65708931264533 2 178.40434421507805 196.99580336947147 2 38.318842525400065 2.604196630528539 2 81.152461047943845 8.6959396500532655 2 128.4937335941801 4.2915462409589908 2 9.0718677492309219 26.809421627870698 2 18.451174789222257 15.877441597383537 2 60.364632021948637 14.495518325497564 2 132.07163559669573 28.941399473409422 2 175.00243643593294 29.120879900934881 2 191.40888154835451 40.832151678499798 2 114.9504711676127 35.527552858918085 2 64.61625667449114 34.699167169260008 2 146.55754606128835 30.335856554731237 2 16.292080591228316 45.041661634550493 2 151.88554830439205 46.438953925955893 2 196.99580336947147 48.974357956335098 2 21.134748183638145 57.665865644072213 2 83.173628876378359 70.920656124891693 2 177.15561239248163 71.673591904626477 2 147.66400277655211 77.544107522336077 2 131.47210804943248 77.762339192377354 2 74.439253889198326 78.027201384412834 2 81.233858133105912 84.781794537115829 2 189.44365355340423 88.373876599572128 2 13.577511520906874 100.39719307886403 2 186.10306120295212 103.64160780036825 2 74.091417068942661 99.052717332482302 2 128.78990592441474 101.52955296035375 2 157.59722300485339 112.36215051852903 2 3.0041966305285395 117.80826393700771 2 183.76870146957896 108.97146940978652 2 142.1027406423523 110.10093249497243 2 184.83325032294474 125.15533279547202 2 31.14166723025355 117.28336398521277 2 66.914840135807452 129.19633977459216 2 72.381147958802984 129.31142604454138 2 21.390799327384663 123.90026150006466 2 145.49760297449066 135.93693854503954 2 7.5213883882111929 133.5737166655353 2 196.99580336947147 129.0460512103262 2 7.0719212125690021 148.88682330540473 2 147.13141824805396 149.89557903174506 2 23.219862722280602 154.3255313395143 2 171.32372431003697 154.35547856070599 2 156.02184008577274 159.39995243736817 2 150.12135691191992 166.39745440389683 2 89.571666610583847 155.18024471762618 2 170.90518205626054 167.92349437100879 2 92.893843033702908 172.06969815265063 2 98.345637348351829 172.80454991651703 2 145.76102434992262 185.02146324596777 2 181.15947898542206 182.61288593469109 2 196.99580336947147 196.99580336947147 2 92.737398114810091 192.20146333520464 2 192.24806326184205 196.99580336947147 2 89.971667171822816 3.0041966305285395 2 125.33182936412591 15.319666308807658 2 74.479381902093621 3.0877199873772314 2 16.362246985650575 20.918327620580346 2 109.75493463199176 27.29885427851935 2 129.13314485267674 37.13038133290695 2 30.256066624499841 28.693427543888173 2 186.95911851733513 37.305538575583192 2 196.99580336947147 25.759536708106531 2 123.48656406485405 37.570570110276329 2 78.368286889442743 43.560670605735915 2 141.0943476057262 35.347631817478657 2 158.88219361894679 49.800171729276023 2 183.43595040655947 54.787998294093171 2 24.547741569727695 53.331844389375121 2 86.233514957869502 51.649805925492061 2 77.245365997278526 56.442602886379163 2 194.14324751758107 63.606355590589871 2 75.865626363784287 68.384534925832114 2 108.33155548227136 71.627079699128913 2 172.54326793576527 68.472231873862555 2 153.46411198210131 76.602722030394588 2 132.37216637397469 89.042833014106321 2 71.642280513473679 93.96233919737125 2 90.488777051540453 87.469922047492503 2 174.24714859467227 92.126686610646857 2 64.932836115884825 88.880256291423891 2 195.48397123718681 91.606692214037608 2 3.0041966305285395 98.141583146641594 2 189.67300669179829 108.15364098931222 2 136.53137250886937 110.01849052982509 2 151.95083138520383 111.74342327785324 2 11.916204041382581 105.83851355315173 2 196.99580336947147 116.86962811900317 2 145.48657923906919 123.60627409766428 2 179.42769072350853 123.42679651182559 2 61.84909292717002 126.33048721990903 2 72.89027685658381 123.98608539302428 2 30.928630416631805 135.3531714818229 2 20.536654377750857 134.37977399195358 2 7.5372070054059854 138.78133731300434 2 192.22723750819668 132.39967728910875 2 138.38453473349193 137.19913907878208 2 13.506009087922168 158.94766834302482 2 34.860063111510385 162.80598605231177 2 158.6494973776841 154.72147940084668 2 7.8164367435415265 158.34870070118922 2 150.95960695725975 159.92864215282333 2 158.70650333162473 174.85983581771177 2 97.975404955872449 177.75008616107343 2 170.451385275946 179.39450556571799 2 101.96097716491741 181.4561805140419 2 157.87245822809362 185.97372349261454 2 188.00967600443249 187.60527242941731 2 192.74861080772956 187.71302986505538 2 89.803012821110897 182.82895097201305 2 17.332182537076616 186.92507372868062 2 169.80195342432242 192.74658053070033 2 119.79762104061017 7.3699411764857379 2 72.430965461864005 13.876272627888179 2 52.497872560369025 22.263869473146936 2 109.01366140394727 16.254526473065479 2 127.69600654832938 25.295885779685989 2 20.604894574343032 24.030022951849919 2 176.3297563637816 34.066543577500696 2 192.41365149121512 35.50860238954769 2 105.24624418053941 30.783377697604589 2 65.658043845144306 39.947883728089309 2 150.26444974807939 39.370830186108265 2 7.5200547073848281 36.303042864514701 2 153.96527305019933 57.892343022116933 2 196.99580336947147 43.010372491212067 2 80.153026438501072 61.027934018594465 2 193.69407421890156 73.581165232587949 2 68.092677213376319 76.683967844010823 2 79.560413827794449 79.69813976176161 2 83.484707842129041 94.560316697968261 2 192.54042054484231 83.50470279541554 2 65.471165790668181 83.027172253557566 2 184.93683690052345 92.761642201516466 2 8.6838561010411173 92.053764186687729 2 174.93883822051782 104.31843139712018 2 69.954152827993241 106.80903770363388 2 132.20228258608608 106.15018616740278 2 164.52832108039757 114.93162132532504 2 13.760886315684182 115.18361452112869 2 191.14406098745602 116.43695917039462 2 148.37808792782096 118.68162127353213 2 187.03146090964896 130.12796017242127 2 36.414374186335941 120.70180808567358 2 77.232705653003194 127.21906172895454 2 31.458777887273257 123.13328888326278 2 148.00476440353032 142.77255828446084 2 22.33898761284156 129.50473511739619 2 24.950990472147346 143.51298911587963 2 196.99580336947147 143.26456144613138 2 16.516115104632124 148.26406031852733 2 143.49289953745892 146.05586328652666 2 196.99580336947147 153.16489243852965 2 27.913091156558409 152.2840970202553 2 170.58658610450055 162.40714241804898 2 4.467073044768072 167.32441681943817 2 46.206018218492297 162.71502928191319 2 45.680920654134589 167.97494527542744 2 143.45317837689063 167.03824483240479 2 96.391146670987851 161.16546142355429 2 155.40052040686868 164.61152492312866 2 86.403306454950396 177.42177128393877 2 105.93061036315935 166.74251883238716 2 152.25828712801476 173.98200371653977 2 171.66221708813126 185.37328162345321 2 184.95517362227858 192.21420235285007 2 81.331948239599356 195.2899372743002 2 4.2929036748994331 191.65950538887157 2 182.66870363389739 187.57280745366995 2 120.17991215391538 18.549150043399607 2 13.233240866797036 16.685420881208209 2 56.975023950120338 30.736716993512562 2 108.90184557576343 21.744083108397589 2 141.57113605634527 30.06317386901393 2 31.354751688042064 23.123061650294446 2 183.93565916128358 42.288626365238827 2 192.08022286066327 27.269870978260251 2 115.1773886512874 29.556304290728253 2 141.91330464649963 50.345595195645856 2 35.84869770332606 29.900474447827825 2 164.54413875387667 47.907516068690946 2 191.50352456940118 50.838112041749802 2 95.925654561070431 48.874432567410786 2 188.60267695448445 61.461667754015679 2 83.667122646722902 76.492648153828952 2 177.95937342536661 64.526152088677037 2 144.89467606765518 72.263851971466693 2 128.00870732254219 81.304599854028595 2 77.516216200200986 94.894028763796086 2 85.229245781524696 88.866563347030578 2 182.82736973273703 98.301393916967243 2 12.101455220767296 87.279082887312185 2 192.03185140877892 102.85303494282623 2 65.02128349615775 116.15279764015067 2 131.28356279364996 111.36700861673955 2 160.14430974257141 98.876421496685211 2 6.8421888632351067 102.73473114924887 2 182.51907929484344 117.34582529269154 2 176.0858795040711 128.51207748501835 2 36.711635982659942 126.39167324021656 2 75.963149052269713 119.11531589923128 2 28.561981721534323 140.23308620999103 2 16.701520897217495 142.39467746948466 2 3.0041966305285395 141.4479609969917 2 35.208883459396127 131.9834689985824 2 7.7346059160806044 143.94481911925385 2 169.07517527326334 146.32427749874634 2 197.39580336947145 160.04872781773409 2 13.888802891833834 153.8009019443351 2 163.88327931700638 155.3928519718113 2 31.094026528005514 159.72996604165934 2 151.74665640476405 146.92438766336551 2 3.0041966305285395 151.72851302801678 2 40.950574286825123 154.84188002977262 2 148.54291596460519 154.92240650517525 2 162.21244102297422 170.29888501149682 2 94.708008405287458 187.57880343540802 2 196.99580336947147 174.7261861043834 2 175.76479424779208 170.07727249678032 2 100.47585338898665 187.00085849271707 2 164.10042323551502 183.21715881769691 2 196.99580336947147 180.03579885134917 2 84.064108487885633 184.38831752401578 2 183.15534681510275 196.99580336947147 2 97.475351624362773 70.18538313454394 2 32.469096645969223 149.71351058774837 2 39.37797310864304 139.83036838913051 2 12.127834502448085 135.4648858743048 2 85.931601541228105 61.999024309207535 2 94.529306666165496 75.355776543273805 2 92.139080863326782 65.270628069178571 2 111.03481564398253 61.596280334530114 2 26.402628331634428 37.411316104385527 2 46.748762504346814 137.76981468825502 2 42.331751234111586 149.37937120704456 2 </DataArray>
</Points>
<Cells>
<DataArray Name="connectivity" format="ascii" type="Int32">0</DataArray>
<DataArray Name="offsets" format="ascii" type="Int32">0</DataArray>
<DataArray Name="types" format="ascii" type="UInt8">1</DataArray>
</Cells>
<PointData>