<?xml version="1.0" ?>
<VTKFile byte_order="LittleEndian" type="UnstructuredGrid" version="0.1">
<UnstructuredGrid>
<Piece NumberOfCells="0" NumberOfPoints="138">
<Points>
<DataArray NumberOfComponents="3" format="ascii" type="Float32">19.117430905109188 5.6906741691023148 3.0 11.071501451497465 4.4417907498287148 3.0 52.287910985696101 6.7930873293917111 3.0 99.9614584397833 4.3824733966092886 3.0 160.83072835116531 6.4869372408759816 3.0 26.150208218080049 12.685602187740404 3.0 187.67268767520173 10.785318024845946 3.0 170.57107428391936 18.905978519897889 3.0 179.89073130488586 20.233612693749546 3.0 71.455997976194396 19.831607084250805 3.0 96.095474684945188 20.51842647363479 3.0 139.43919073339825 21.88284122754645 3.0 89.304604719860166 29.778884390499922 3.0 97.275418241397247 34.569072386654852 3.0 20.135343768476677 36.195453710994094 3.0 50.146511652214919 40.067888618952324 3.0 101.47413469311238 43.227257054637384 3.0 61.506546234110459 48.411804016052436 3.0 10.093140473068477 55.282819567874682 3.0 41.045161927707817 60.398512192500966 3.0 131.94788851186408 62.260596947791512 3.0 66.261537300477798 64.790740167423564 3.0 93.942561850558675 64.726033567948662 3.0 136.89802540700146 69.505202031162042 3.0 44.664756178107993 69.294725400140848 3.0 38.697039015802766 71.643810791538073 3.0 20.175104964690743 76.043114702280349 3.0 182.93595541669697 75.437493435267399 3.0 7.0137878317361331 82.459268934837596 3.0 116.19636261519585 83.03966374796137 3.0 176.69983392399391 86.164687585279481 3.0 45.84251556209459 91.959132652872455 3.0 61.171374726678017 99.341290628457458 3.0 45.962325760434851 99.251119659324175 3.0 82.973168923963755 116.05610657986095 3.0 106.83386174637572 118.26523102613046 3.0 127.4397123649033 123.96977790252747 3.0 109.75518540182513 125.08605095028247 3.0 137.6151286749764 125.9148290564349 3.0 13.051168440632706 131.3857900212422 3.0 41.874217437714528 132.32740825804169 3.0 107.05622926668265 131.94586430441259 3.0 97.816344198431636 135.72018958662829 3.0 159.86968876010724 140.66359543451759 3.0 111.10415936953632 139.97115206774697 3.0 184.08712911740031 140.49510466676318 3.0 77.906086475748737 142.28062064193054 3.0 67.242740924632855 143.01969688690616 3.0 35.922944759292712 148.46885654842035 3.0 53.086324891557808 150.30162531433717 3.0 130.84753455978876 151.77310721949871 3.0 61.834737013481288 152.1639647142843 3.0 188.38520661389646 154.01134125313686 3.0 70.270199379717013 154.69210887796908 3.0 104.15952478975964 154.09903501023152 3.0 180.682165780822 160.83442897176758 3.0 80.874178442750875 166.62137987285107 3.0 130.18493722252387 166.07310390159253 3.0 117.28810924191623 166.98250960512257 3.0 22.091281215922717 169.28805125561644 3.0 191.01148685144969 170.0563602395714 3.0 13.438492825756427 174.97027709127664 3.0 34.785506323777533 172.75816403514284 3.0 70.60601313778325 172.80715743635591 3.0 55.669811746355471 175.9512644258576 3.0 185.99178371314272 178.91751714174904 3.0 36.579143981682279 192.90136703695282 3.0 24.013482099258333 195.40422693705148 3.0 131.18548462580563 192.75308239541238 3.0 15.503924102677857 2.460471630538 2 6.2361999574984877 4.7321810778616564 2 54.396751097154777 2.460471630538 2 104.27844640705042 6.5224164183066318 2 158.18402183091692 2.460471630538 2 29.682605030842591 9.4087265412098109 2 189.03325274242701 15.407504081625415 2 168.19724457258721 14.713047117258801 2 184.50171635614819 18.835557579429882 2 69.560515068491924 24.261379741199242 2 91.541828288389468 22.093242571080893 2 141.7703510341438 26.099644862750278 2 88.038430152773145 34.42781364478013 2 99.613922818221752 38.78219260529707 2 23.23540162146659 39.883997058921274 2 45.380715851119966 39.358711893512172 2 104.8112623763253 39.674392422829833 2 56.778171886033071 47.485382430606542 2 5.5491968799159341 53.680222342153812 2 36.700654554484458 58.315006269867638 2 136.20627139250718 59.949917707825982 2 69.331163697949833 61.076829152659869 2 98.505546507691463 66.278664450413117 2 137.43015699503408 64.716321613126098 2 47.422142629665863 65.3432138288467 2 43.004802346394889 73.818239439074858 2 19.447232287721572 71.280138467638608 2 187.35895382014698 77.34873030408275 2 2.7996956484117574 80.123210648731558 2 115.38012657853241 78.291032368490846 2 172.30531181435632 84.188854425939709 2 50.653922810634526 91.702030466305402 2 63.523072251756432 95.135660052792772 2 41.962150045250539 101.93707116545565 2 83.084699783040023 111.23912597858032 2 102.36471850472236 120.06630033645357 2 125.61192514765411 119.51164655249967 2 111.12068805888897 120.46528879217688 2 135.05817458674528 129.9986663495109 2 8.6816933193525561 129.35516735561617 2 41.645645686684759 127.4087316188389 2 110.63878946864394 135.17138443601198 2 94.422981605371504 132.2995417594382 2 156.25458460205397 137.47819700228555 2 110.86216835770503 144.78656090650878 2 179.56817340251908 142.1668643661765 2 82.453243471986966 140.68716386586098 2 70.39049970645938 146.66762176237634 2 40.400025592962152 150.2497238804892 2 48.570712165939774 148.62085675267355 2 135.63807894305353 152.28927168709646 2 64.54001119729341 156.18534965775223 2 190.58062169835364 149.72217517753211 2 66.614280993530897 151.5534788119997 2 107.65319467104659 157.41716882402335 2 177.84655324464615 156.93891324335337 2 85.553970087218474 167.76824142073363 2 133.57297323159571 169.49902760869296 2 120.24728194562117 170.78501380042437 2 17.555066144221616 167.66370705905214 2 190.96373854614393 165.2383252308795 2 11.615774963479922 170.51007072383373 2 35.677109177989813 177.49322323181616 2 72.243729536052456 177.33856188139063 2 52.885552203822144 179.88364793277199 2 190.81039189864774 178.92681564062156 2 34.171770318450314 188.72760455075198 2 23.044497065686617 190.68437607195722 2 130.41446598929693 197.50926484647505 2 </DataArray>
</Points>
<Cells>
<DataArray Name="connectivity" format="ascii" type="Int32">0</DataArray>
<DataArray Name="offsets" format="ascii" type="Int32">0</DataArray>
<DataArray Name="types" format="ascii" type="UInt8">1</DataArray>
</Cells>
<PointData>
<DataArray Name="Points" NumberOfComponents="3" format="ascii" type="Float32">19.117430905109188 5.6906741691023148 3.0 11.071501451497465 4.4417907498287148 3.0 52.287910985696101 6.7930873293917111 3.0 99.9614584397833 4.3824733966092886 3.0 160.83072835116531 6.4869372408759816 3.0 26.150208218080049 12.685602187740404 3.0 187.67268767520173 10.785318024845946 3.0 170.57107428391936 18.905978519897889 3.0 179.89073130488586 20.233612693749546 3.0 71.455997976194396 19.831607084250805 3.0 96.095474684945188 20.51842647363479 3.0 139.43919073339825 21.88284122754645 3.0 89.304604719860166 29.778884390499922 3.0 97.275418241397247 34.569072386654852 3.0 20.135343768476677 36.195453710994094 3.0 50.146511652214919 40.067888618952324 3.0 101.47413469311238 43.227257054637384 3.0 61.506546234110459 48.411804016052436 3.0 10.093140473068477 55.282819567874682 3.0 41.045161927707817 60.398512192500966 3.0 131.94788851186408 62.260596947791512 3.0 66.261537300477798 64.790740167423564 3.0 93.942561850558675 64.726033567948662 3.0 136.89802540700146 69.505202031162042 3.0 44.664756178107993 69.294725400140848 3.0 38.697039015802766 71.643810791538073 3.0 20.175104964690743 76.043114702280349 3.0 182.93595541669697 75.437493435267399 3.0 7.0137878317361331 82.459268934837596 3.0 116.19636261519585 83.03966374796137 3.0 176.69983392399391 86.164687585279481 3.0 45.84251556209459 91.959132652872455 3.0 61.171374726678017 99.341290628457458 3.0 45.962325760434851 99.251119659324175 3.0 82.973168923963755 116.05610657986095 3.0 106.83386174637572 118.26523102613046 3.0 127.4397123649033 123.96977790252747 3.0 109.75518540182513 125.08605095028247 3.0 137.6151286749764 125.9148290564349 3.0 13.051168440632706 131.3857900212422 3.0 41.874217437714528 132.32740825804169 3.0 107.05622926668265 131.94586430441259 3.0 97.816344198431636 135.72018958662829 3.0 159.86968876010724 140.66359543451759 3.0 111.10415936953632 139.97115206774697 3.0 184.08712911740031 140.49510466676318 3.0 77.906086475748737 142.28062064193054 3.0 67.242740924632855 143.01969688690616 3.0 35.922944759292712 148.46885654842035 3.0 53.086324891557808 150.30162531433717 3.0 130.84753455978876 151.77310721949871 3.0 61.834737013481288 152.1639647142843 3.0 188.38520661389646 154.01134125313686 3.0 70.270199379717013 154.69210887796908 3.0 104.15952478975964 154.09903501023152 3.0 180.682165780822 160.83442897176758 3.0 80.874178442750875 166.62137987285107 3.0 130.18493722252387 166.07310390159253 3.0 117.28810924191623 166.98250960512257 3.0 22.091281215922717 169.28805125561644 3.0 191.01148685144969 170.0563602395714 3.0 13.438492825756427 174.97027709127664 3.0 34.785506323777533 172.75816403514284 3.0 70.60601313778325 172.80715743635591 3.0 55.669811746355471 175.9512644258576 3.0 185.99178371314272 178.91751714174904 3.0 36.579143981682279 192.90136703695282 3.0 24.013482099258333 195.40422693705148 3.0 131.18548462580563 192.75308239541238 3.0 15.503924102677857 2.460471630538 2 6.2361999574984877 4.7321810778616564 2 54.396751097154777 2.460471630538 2 104.27844640705042 6.5224164183066318 2 158.18402183091692 2.460471630538 2 29.682605030842591 9.4087265412098109 2 189.03325274242701 15.407504081625415 2 168.19724457258721 14.713047117258801 2 184.50171635614819 18.835557579429882 2 69.560515068491924 24.261379741199242 2 91.541828288389468 22.093242571080893 2 141.7703510341438 26.099644862750278 2 88.038430152773145 34.42781364478013 2 99.613922818221752 38.78219260529707 2 23.23540162146659 39.883997058921274 2 45.380715851119966 39.358711893512172 2 104.8112623763253 39.674392422829833 2 56.778171886033071 47.485382430606542 2 5.5491968799159341 53.680222342153812 2 36.700654554484458 58.315006269867638 2 136.20627139250718 59.949917707825982 2 69.331163697949833 61.076829152659869 2 98.505546507691463 66.278664450413117 2 137.43015699503408 64.716321613126098 2 47.422142629665863 65.3432138288467 2 43.004802346394889 73.818239439074858 2 19.447232287721572 71.280138467638608 2 187.35895382014698 77.34873030408275 2 2.7996956484117574 80.123210648731558 2 115.38012657853241 78.291032368490846 2 172.30531181435632 84.188854425939709 2 50.653922810634526 91.702030466305402 2 63.523072251756432 95.135660052792772 2 41.962150045250539 101.93707116545565 2 83.084699783040023 111.23912597858032 2 102.36471850472236 120.06630033645357 2 125.61192514765411 119.51164655249967 2 111.12068805888897 120.46528879217688 2 135.05817458674528 129.9986663495109 2 8.6816933193525561 129.35516735561617 2 41.645645686684759 127.4087316188389 2 110.63878946864394 135.17138443601198 2 94.422981605371504 132.2995417594382 2 156.25458460205397 137.47819700228555 2 110.86216835770503 144.78656090650878 2 179.56817340251908 142.1668643661765 2 82.453243471986966 140.68716386586098 2 70.39049970645938 146.66762176237634 2 40.400025592962152 150.2497238804892 2 48.570712165939774 148.62085675267355 2 135.63807894305353 152.28927168709646 2 64.54001119729341 156.18534965775223 2 190.58062169835364 149.72217517753211 2 66.614280993530897 151.5534788119997 2 107.65319467104659 157.41716882402335 2 177.84655324464615 156.93891324335337 2 85.553970087218474 167.76824142073363 2 133.57297323159571 169.49902760869296 2 120.24728194562117 170.78501380042437 2 17.555066144221616 167.66370705905214 2 190.96373854614393 165.2383252308795 2 11.615774963479922 170.51007072383373 2 35.677109177989813 177.49322323181616 2 72.243729536052456 177.33856188139063 2 52.885552203822144 179.88364793277199 2 190.81039189864774 178.92681564062156 2 34.171770318450314 188.72760455075198 2 23.044497065686617 190.68437607195722 2 130.41446598929693 197.50926484647505 2 </DataArray>
<DataArray Name="forces" NumberOfComponents="3" format="ascii" type="Float32">0.018934135082988662 0.036081405377126528 0.0 -0.01147718652198431 0.018202910621934049 0.0 -0.00038783274461441013 0.00079755381166653791 0.0 0.0 0.0 0.0 0.00037489984599056096 0.00057082875844835642 0.0 0.0 0.0 0.0 0.0 0.0 0.0 0.0 0.0 0.0 0.0 0.0 0.0 0.0 0.0 0.0 0.0 0.0 0.0 0.0 0.0 0.0 0.0 0.0 0.0 -9.5311554845739865e-05 -0.00017172119985351504 0.0 0.0 0.0 0.0 0.0 0.0 0.0 7.5824514875327348e-05 0.00018117994353529344 0.0 0.0 0.0 0.0 0.0 0.0 0.0 0.0 0.0 0.0 0.0 0.0 0.0 0.0 0.0 0.0 -0.0003293573698976525 0.00084632563641178502 0.0 0.0 0.0 0.0 -2.5206416592011568e-05 -1.3174296404265383e-05 0.0 0.0 0.0 0.0 0.0 0.0 0.0 0.0 0.0 0.0 0.0 0.0 0.0 0.0 0.0 0.0 0.0 0.0 0.0 0.0 0.0 0.0 -5.939744676556742e-05 0.00010622041322854426 0.0 0.0 0.0 0.0 0.0 0.0 0.0 0.0 0.0 0.0 0.0 0.0 0.0 0.0 0.0 0.0 0.0 0.0 0.0 0.0 0.0 0.0 0.0071881906726402539 0.0023030940368694505 0.0 -0.0016498833528563975 -0.0014897633687660872 0.0 0.0 0.0 0.0 0.0 0.0 0.0 0.00050987664252157613 0.00072391232149309056 0.0 0.0 0.0 0.0 0.0 0.0 0.0 0.0 0.0 0.0 0.0 0.0 0.0 0.0 0.0 0.0 0.0 0.0 0.0 0.0 0.0 0.0 0.0 0.0 0.0 0.0 0.0 0.0 0.0 0.0 0.0 0.0 0.0 0.0 0.0 0.0 0.0 0.0 0.0 0.0 0.0 0.0 0.0 0.0 0.0 0.0 0.0 0.0 0.0 0.0 0.0 0.0 0.0 0.0 0.0 0.0 0.0 0.0 0.0 0.0 0.0 2.3804374542950519e-06 1.6779287780406238e-05 0.0 0.0 0.0 0.0 0.0 0.0 0.0 0.0 0.0 0.0 0.016265070295020223 -0.046969836864637349 0.0 -0.035080197177532628 0.0024566383221895013 0.0 0.00038783274461441013 -0.00079755381166653791 0.0 0.0 0.0 0.0 -0.00037489984599056096 -0.00057082875844835642 0.0 0.0 0.0 0.0 0.0 0.0 0.0 0.0 0.0 0.0 0.0 0.0 0.0 0.0 0.0 0.0 0.0 0.0 0.0 0.0 0.0 0.0 0.0 0.0 0.0 1.9487039970412517e-05 -9.4587436817784073e-06 0.0 0.0 0.0 0.0 0.0 0.0 0.0 0.0 0.0 0.0 0.0 0.0 0.0 0.0 0.0 0.0 0.0 0.0 0.0 0.0 0.0 0.0 0.0 0.0 0.0 0.0010400459963065011 -1.5801695638430939e-05 0.0 0.0 0.0 0.0 6.3367635448207784e-05 -9.0813024226548216e-05 0.0 -3.8161218856196216e-05 0.0001039873206308136 0.0 0.0 0.0 0.0 0.0 0.0 0.0 0.0 0.0 0.0 0.0 0.0 0.0 0.0 0.0 0.0 0.0 0.0 0.0 -1.2235433029494506e-05 -1.1136693702656309e-05 0.0 0.0 0.0 0.0 0.0 0.0 0.0 0.0 0.0 0.0 0.0 0.0 0.0 0.0 0.0 0.0 0.0 0.0 0.0 0.0 0.0 0.0 0.0 0.0 0.0 0.0012887104804834748 -0.0022118449417296016 0.0 0.0 0.0 0.0 0.0 0.0 0.0 -0.00014870377014865335 0.002977695989002598 0.0 0.0 0.0 0.0 0.0 0.0 0.0 0.0 0.0 0.0 0.0 0.0 0.0 0.0 0.0 0.0 0.0 0.0 0.0 0.0 0.0 0.0 0.0 0.0 0.0 0.0 0.0 0.0 0.0 0.0 0.0 0.0 0.0 0.0 0.0 0.0 0.0 0.0 0.0 0.0 0.0 0.0 0.0 0.0 0.0 0.0 0.0 0.0 0.0 0.0 0.0 0.0 0.0 0.0 0.0 0.0 0.0 0.0 0.0 0.0 0.0 0.00020731389996440973 4.0205516996031099e-07 0.0 0.0 0.0 0.0 0.0 0.0 0.0 0.0 0.0 0.0 </DataArray>
<DataArray Name="radii" format="ascii" type="Float32">2.460471630538 2.460471630538 2.460471630538 2.460471630538 2.460471630538 2.460471630538 2.460471630538 2.460471630538 2.460471630538 2.460471630538 2.460471630538 2.460471630538 2.460471630538 2.460471630538 2.460471630538 2.460471630538 2.460471630538 2.460471630538 2.460471630538 2.460471630538 2.460471630538 2.460471630538 2.460471630538 2.460471630538 2.460471630538 2.460471630538 2.460471630538 2.460471630538 2.460471630538 2.460471630538 2.460471630538 2.460471630538 2.460471630538 2.460471630538 2.460471630538 2.460471630538 2.460471630538 2.460471630538 2.460471630538 2.460471630538 2.460471630538 2.460471630538 2.460471630538 2.460471630538 2.460471630538 2.460471630538 2.460471630538 2.460471630538 2.460471630538 2.460471630538 2.460471630538 2.460471630538 2.460471630538 2.460471630538 2.460471630538 2.460471630538 2.460471630538 2.460471630538 2.460471630538 2.460471630538 2.460471630538 2.460471630538 2.460471630538 2.460471630538 2.460471630538 2.460471630538 2.460471630538 2.460471630538 2.460471630538 2.460471630538 2.460471630538 2.460471630538 2.460471630538 2.460471630538 2.460471630538 2.460471630538 2.460471630538 2.460471630538 2.460471630538 2.460471630538 2.460471630538 2.460471630538 2.460471630538 2.460471630538 2.460471630538 2.460471630538 2.460471630538 2.460471630538 2.460471630538 2.460471630538 2.460471630538 2.460471630538 2.460471630538 2.460471630538 2.460471630538 2.460471630538 2.460471630538 2.460471630538 2.460471630538 2.460471630538 2.460471630538 2.460471630538 2.460471630538 2.460471630538 2.460471630538 2.460471630538 2.460471630538 2.460471630538 2.460471630538 2.460471630538 2.460471630538 2.460471630538 2.460471630538 2.460471630538 2.460471630538 2.460471630538 2.460471630538 2.460471630538 2.460471630538 2.460471630538 2.460471630538 2.460471630538 2.460471630538 2.460471630538 2.460471630538 2.460471630538 2.460471630538 2.460471630538 2.460471630538 2.460471630538 2.460471630538 2.460471630538 2.460471630538 2.460471630538 2.460471630538 2.460471630538 2.460471630538 2.460471630538 </DataArray>
</PointData>
<CellData/>
</Piece>
</UnstructuredGrid>
</VTKFile>
