<?xml version="1.0" ?>
<VTKFile byte_order="LittleEndian" type="UnstructuredGrid" version="0.1">
<UnstructuredGrid>
<Piece NumberOfCells="0" NumberOfPoints="104">
<Points>
<DataArray NumberOfComponents="3" format="ascii" type="Float32">0 0 0 33.564590859348449 4.2218759394483136 2.5 75.464996339249012 17.972765284311095 3.0 23.252181855540488 17.882452255268213 3.0 62.766628571490415 18.946478594968731 2.5 100.60226729443049 21.331799723108411 3.0 136.94817071594017 25.758091245104577 2.5 22.026107730788695 34.623097282111139 2.5 181.61886923544284 27.752400106556966 2.5 111.11230671847035 39.339551553163822 2.5 69.09560424020215 31.234984690012638 2.5 27.08490346369528 42.591500771655483 2.5 102.05552265795924 51.99467520515725 3.0 92.585551576968939 59.789964889076607 2.5 70.848041228853234 65.399847579376669 2.5 181.16384901721798 82.079318857725752 3.0 59.815525596956277 90.317050266093545 2.5 76.72851788735251 132.24621450748461 2.5 150.42178548487959 132.58329465434596 2.5 16.338073550717109 131.85078543086829 2.5 32.921489691707329 144.40173001795273 3.0 43.842679252760249 142.07289682697856 2.5 141.55099890778294 151.5020302246449 2.5 176.52146214569242 145.4969180959238 2.5 191.6677068315183 144.90674281316993 2.5 8.8427150572382782 162.72832940968499 2.5 117.38144896073388 156.49582504779661 2.5 51.586452050398336 158.6708845862936 2.5 91.066046263316906 160.12385111387178 2.5 192.25929871086328 177.11192080270411 2.5 180.88707083472838 171.64322841790357 2.5 25.428530795161596 182.28079403766594 2.5 24.514591249305351 7.1882105747541774 2 13.076225198623847 11.942536233547168 2 64.408058552502609 24.136899606614595 2 60.292762694014193 40.340487710751191 2 21.925723206220976 45.511044381038971 2 101.44457423986654 58.815543007150104 2 134.60924743740443 115.21378274688242 2 41.290470567843904 130.37196735825742 2.5 63.048748235230043 133.67786263341557 2 141.40706595592061 132.44631191542538 2 38.411376642458478 144.58749453030353 2 187.46326511581779 135.20727641504394 2.5 46.967725142149227 146.95986049247514 2 172.14365621980275 141.04233257613166 2 191.58037030762492 151.03000686388324 2 17.796705077700334 162.60248250593438 2 163.70585444719296 145.40505724478666 2 27.629454450822191 164.07788969694499 2.5 126.33268842529777 154.3150111512891 2 37.326152557816016 150.29596091176364 2 49.645042454822409 151.8352816076787 2 101.63074207405 161.81821487115172 2 197.15 164.85871538646984 2 24.099886150235548 188.44639063983229 2 101.7762194319685 16.605749991331127 2 110.24462993501098 32.813993534379897 2 16.046725181659706 59.82255573287631 2 177.34554030997901 77.435999638287143 2 138.52087019146964 71.496756758990827 2.5 133.24305074177613 72.913155756756424 2 66.207141603851454 103.19149425510267 2 70.734158252830483 134.16853283898095 2 11.464736753416414 130.22056721821664 2 138.15462236980127 146.70823738569459 2 176.75630295041111 153.68192318070754 2 174.28089261815086 158.75684809313375 2 87.861095444676607 170.39700958271001 2 180.49784128884974 177.05594109286395 2.5 92.832260796261934 12.307693423186015 2 19.64032937240739 10.841074691694649 2.5 187.28709696110778 25.960574990642314 2 13.557811220215743 52.20111988486773 2 97.639889465410079 63.443166974136368 2.5 102.36200403365923 67.45200329926665 2 181.48646088862125 69.057774794660602 2 176.89636088447881 86.173504461057064 2 67.776604182873868 97.773669014919747 2 7.1564380001804695 86.561049135267083 2.5 139.71535246936344 121.3335251449449 2.5 41.632315702060481 124.35598779956537 2 80.496927149035855 122.36759892758072 2 134.58743069949568 141.27916467467807 2 194.06956863309387 156.6105919425859 2 156.38369013017206 143.57096548770059 2 98.649854437008216 155.79418266903087 2 197.15 169.81146381819332 2 186.27686097377358 178.47767428944232 2 186.62410831675837 68.638818499031345 2 13.072246171036886 164.42221161087684 2 36.13174318567058 167.36134907169631 2.5 18.215794832262883 192.07366721588517 2 79.776890679361273 107.02418060894153 2 166.01219923301946 140.30679496538008 2 87.641200046174589 13.997699937577003 2 7.7804071277627997 16.674868545188474 2 28.621442976837816 18.14502882146401 2 39.119199021362689 38.863136300534215 2 175.53462959306975 164.45209250826343 2.5 22.961179631548532 161.7147676875737 2 67.993665000984194 16.907855471926478 2 50.988521165533534 128.46341313260979 2 140.66665762649447 126.82904699706725 2 </DataArray>
</Points>
<Cells>
<DataArray Name="connectivity" format="ascii" type="Int32">0</DataArray>
<DataArray Name="offsets" format="ascii" type="Int32">0</DataArray>
<DataArray Name="types" format="ascii" type="UInt8">1</DataArray>
</Cells>
<PointData>
<DataArray Name="Points" NumberOfComponents="3" format="ascii" type="Float32">0 0 0 33.564590859348449 4.2218759394483136 2.5 75.464996339249012 17.972765284311095 3.0 23.252181855540488 17.882452255268213 3.0 62.766628571490415 18.946478594968731 2.5 100.60226729443049 21.331799723108411 3.0 136.94817071594017 25.758091245104577 2.5 22.026107730788695 34.623097282111139 2.5 181.61886923544284 27.752400106556966 2.5 111.11230671847035 39.339551553163822 2.5 69.09560424020215 31.234984690012638 2.5 27.08490346369528 42.591500771655483 2.5 102.05552265795924 51.99467520515725 3.0 92.585551576968939 59.789964889076607 2.5 70.848041228853234 65.399847579376669 2.5 181.16384901721798 82.079318857725752 3.0 59.815525596956277 90.317050266093545 2.5 76.72851788735251 132.24621450748461 2.5 150.42178548487959 132.58329465434596 2.5 16.338073550717109 131.85078543086829 2.5 32.921489691707329 144.40173001795273 3.0 43.842679252760249 142.07289682697856 2.5 141.55099890778294 151.5020302246449 2.5 176.52146214569242 145.4969180959238 2.5 191.6677068315183 144.90674281316993 2.5 8.8427150572382782 162.72832940968499 2.5 117.38144896073388 156.49582504779661 2.5 51.586452050398336 158.6708845862936 2.5 91.066046263316906 160.12385111387178 2.5 192.25929871086328 177.11192080270411 2.5 180.88707083472838 171.64322841790357 2.5 25.428530795161596 182.28079403766594 2.5 24.514591249305351 7.1882105747541774 2 13.076225198623847 11.942536233547168 2 64.408058552502609 24.136899606614595 2 60.292762694014193 40.340487710751191 2 21.925723206220976 45.511044381038971 2 101.44457423986654 58.815543007150104 2 134.60924743740443 115.21378274688242 2 41.290470567843904 130.37196735825742 2.5 63.048748235230043 133.67786263341557 2 141.40706595592061 132.44631191542538 2 38.411376642458478 144.58749453030353 2 187.46326511581779 135.20727641504394 2.5 46.967725142149227 146.95986049247514 2 172.14365621980275 141.04233257613166 2 191.58037030762492 151.03000686388324 2 17.796705077700334 162.60248250593438 2 163.70585444719296 145.40505724478666 2 27.629454450822191 164.07788969694499 2.5 126.33268842529777 154.3150111512891 2 37.326152557816016 150.29596091176364 2 49.645042454822409 151.8352816076787 2 101.63074207405 161.81821487115172 2 197.15 164.85871538646984 2 24.099886150235548 188.44639063983229 2 101.7762194319685 16.605749991331127 2 110.24462993501098 32.813993534379897 2 16.046725181659706 59.82255573287631 2 177.34554030997901 77.435999638287143 2 138.52087019146964 71.496756758990827 2.5 133.24305074177613 72.913155756756424 2 66.207141603851454 103.19149425510267 2 70.734158252830483 134.16853283898095 2 11.464736753416414 130.22056721821664 2 138.15462236980127 146.70823738569459 2 176.75630295041111 153.68192318070754 2 174.28089261815086 158.75684809313375 2 87.861095444676607 170.39700958271001 2 180.49784128884974 177.05594109286395 2.5 92.832260796261934 12.307693423186015 2 19.64032937240739 10.841074691694649 2.5 187.28709696110778 25.960574990642314 2 13.557811220215743 52.20111988486773 2 97.639889465410079 63.443166974136368 2.5 102.36200403365923 67.45200329926665 2 181.48646088862125 69.057774794660602 2 176.89636088447881 86.173504461057064 2 67.776604182873868 97.773669014919747 2 7.1564380001804695 86.561049135267083 2.5 139.71535246936344 121.3335251449449 2.5 41.632315702060481 124.35598779956537 2 80.496927149035855 122.36759892758072 2 134.58743069949568 141.27916467467807 2 194.06956863309387 156.6105919425859 2 156.38369013017206 143.57096548770059 2 98.649854437008216 155.79418266903087 2 197.15 169.81146381819332 2 186.27686097377358 178.47767428944232 2 186.62410831675837 68.638818499031345 2 13.072246171036886 164.42221161087684 2 36.13174318567058 167.36134907169631 2.5 18.215794832262883 192.07366721588517 2 79.776890679361273 107.02418060894153 2 166.01219923301946 140.30679496538008 2 87.641200046174589 13.997699937577003 2 7.7804071277627997 16.674868545188474 2 28.621442976837816 18.14502882146401 2 39.119199021362689 38.863136300534215 2 175.53462959306975 164.45209250826343 2.5 22.961179631548532 161.7147676875737 2 67.993665000984194 16.907855471926478 2 50.988521165533534 128.46341313260979 2 140.66665762649447 126.82904699706725 2 </DataArray>
<DataArray Name="forces" NumberOfComponents="3" format="ascii" type="Float32">0 0 0 -0.0058003866406378668 -0.17700949399208438 0.0 -0.24402173844412342 0.098569262659664481 0.0 0.0008442911394922481 0.37463736577082074 0.0 -0.15673658386961609 0.09875676837660563 0.0 0.46301157252812009 0.31510769581192982 0.0 0.06091857074807451 0.0058076239151093403 0.0 -0.0076305088363113893 0.12903385615821544 0.0 0.0 0.0 0.0 -0.058959280439715087 -0.078547844404084965 0.0 -0.046587920231689353 -0.08572194825118655 0.0 -0.1061355393845103 0.17215702908851072 0.0 -0.15730546817059179 0.083855812029974316 0.0 0.3468478454711269 -0.14208180225654099 0.0 0.067862793280977551 0.2494515877129333 0.0 0.052078466421315583 -0.019512122697063386 0.0 -0.064104445811685506 0.086502599235762326 0.0 0.09128452093456127 -0.19892139904338157 0.0 0.055385299907999147 -0.065583110307334075 0.0 0.084159245940054028 -0.22339569997776698 0.0 0.16247036708305668 0.030076881135888023 0.0 0.083388403119839805 0.14371738656324529 0.0 -0.099026720699090715 0.062674767702724454 0.0 -0.24824031046623807 -0.028018382192371682 0.0 0.050707144246227909 -0.050130052908754746 0.0 -0.26956236291169688 0.71492526201595441 0.0 -0.12147203680206084 -0.17710954503497883 0.0 0.021224005803135909 0.24882607394551354 0.0 0.28717302404686396 -0.20175225403683728 0.0 -0.10091142339031267 -0.26465028852464328 0.0 0.018884381727671096 -0.056091671324093068 0.0 0.055617770557940163 -0.15877044579065594 0.0 0.0049812052247358157 0.39790646364222637 0.0 0.12120075478316578 0.15335075976069845 0.0 0.022163513460828649 0.14154686363669083 0.0 0.026069088010669178 0.050245655348506939 0.0 0.10710108049493154 0.030894232454222997 0.0 -0.019760583103190482 -0.22423592552402485 0.0 0.18644431163606301 -0.097083854263717406 0.0 0.32842011231296603 -0.11757749189179401 0.0 0.12469909873909753 -0.10316355400435898 0.0 0.016027981028169224 0.13667583004016334 0.0 0.15249798757394137 0.21808563689121707 0.0 -0.094387194604471383 -0.021010547693475434 0.0 0.4318406015441737 0.13226085238615481 0.0 -0.23569238309210236 0.03908696876631005 0.0 -0.0024475732268773864 -0.15071178501346477 0.0 0.015830154988278777 0.22275153069781384 0.0 -0.037677438338757363 -0.27225327852507447 0.0 0.0095556178129926894 0.12156689976665347 0.0 0.0090697664536905261 -0.020288043609777612 0.0 -0.094042769518286162 0.24510341869395491 0.0 0.22784960993341252 0.20435066276108865 0.0 -0.15774630585870231 0.061344089301998236 0.0 0.68937115990789821 -0.17193734380965586 0.0 -0.27652528603082049 -0.10431000601031547 0.0 -0.19588789650222443 -0.0066583577881166311 0.0 0.099193278562231507 -0.029323773181565867 0.0 -0.039290750935864482 -0.13487917843826944 0.0 -0.097012950427397687 0.065452160974327378 0.0 0.18541726406546929 0.17079338288004492 0.0 0.12255473883219734 0.028642534551355181 0.0 -0.045921338410030155 0.2031250641987139 0.0 0.11749740517798626 -0.089796933872529572 0.0 0.078131248619798074 -0.37636941039926586 0.0 -0.14812830423116785 0.0064333388004439128 0.0 -0.14313337958520977 -0.00031719613472974695 0.0 0.013307703958837847 0.13576010879332312 0.0 -0.030263323510867801 0.014763021606885862 0.0 -0.30244751658456365 -0.083798217936533859 0.0 0.081028330812549731 0.17031598396897851 0.0 0.37561901731193281 -0.043718607644239627 0.0 -0.18309407195894717 -0.0444873872702835 0.0 -0.014192632616330605 -0.00080788873283423382 0.0 0.20774897230406389 0.16298627039117108 0.0 0.19949270470263228 -0.025028094615806254 0.0 -0.13834185716297315 -0.14336799717129819 0.0 0.075358007316274761 -0.0060739829803419243 0.0 0.080086482612833673 0.24867552980179641 0.0 0.024160325066121036 0.1117644229831863 0.0 0.20164967439001769 0.035698394813970691 0.0 0.15686616662198827 -0.098996134690770551 0.0 0.028043815778808948 0.064599120562427004 0.0 0.027652699507663255 0.1028337132215716 0.0 -0.20968637512251176 -0.011610864189979919 0.0 0.085670110401136437 -0.070167680049691677 0.0 -0.093765187515492815 0.17984024377521451 0.0 0.45518942259555933 -0.23581654135874797 0.0 -0.15803141558598036 0.046288343086067843 0.0 -0.13047519854568029 -0.13634949650281372 0.0 0.077220422321759657 0.13936754383142319 0.0 0.014533096328483514 0.073151859473512326 0.0 -0.087088326754188844 -0.038794137639603016 0.0 0.044633400211647606 -0.1014091754079397 0.0 0.22039331529560091 -0.2674806673164748 0.0 -0.0091634822340963054 -0.090265726349134795 0.0 0.060743803982182237 0.30963752724764071 0.0 0.22952175426942656 -0.040083558620023219 0.0 -0.17181761824517308 0.077353078461096514 0.0 -0.018993721079715482 0.1340183792811038 0.0 -0.016725883716458955 0.023031459895717102 0.0 -0.070103227804225954 0.093875926661045703 0.0 -0.074634740682514869 -0.09542219562953777 0.0 -0.040937932653031028 0.12459258011583943 0.0 </DataArray>
<DataArray Name="radii" format="ascii" type="Float32">0 2.85 2.95 2.95 2.95 2.85 2.95 2.95 2.75 2.85 2.85 2.95 2.75 3.0500000000000003 2.95 3.2500000000000004 2.95 2.85 2.95 3.0500000000000003 3.2500000000000004 3.3500000000000005 2.95 2.95 3.2500000000000004 2.95 2.75 3.0500000000000003 2.85 3.3500000000000005 2.85 3.2500000000000004 3.1500000000000004 3.0500000000000003 2.95 2.95 2.95 2.95 2.85 3.3500000000000005 2.85 2.95 2.85 2.95 3.3500000000000005 2.95 3.2500000000000004 2.95 2.95 2.85 2.95 3.3500000000000005 2.85 2.85 2.85 3.2500000000000004 2.85 2.95 2.95 3.2500000000000004 2.85 2.85 2.95 2.85 2.95 2.95 3.2500000000000004 2.95 2.85 3.3500000000000005 2.85 2.85 2.75 2.85 3.3500000000000005 2.95 2.95 2.75 2.95 2.75 2.95 2.85 2.85 2.95 2.85 2.95 2.85 2.85 3.3500000000000005 2.95 2.85 2.85 2.85 2.85 2.95 2.85 2.85 2.85 2.85 2.85 2.85 2.95 2.85 2.95 </DataArray>
</PointData>
<CellData/>
</Piece>
</UnstructuredGrid>
</VTKFile>
