<?xml version="1.0" ?>
<VTKFile byte_order="LittleEndian" type="UnstructuredGrid" version="0.1">
<UnstructuredGrid>
<Piece NumberOfCells="0" NumberOfPoints="501">
<Points>
<DataArray NumberOfComponents="3" format="ascii" type="Float32">33.03926977069758 2.404196630528539 3.0 86.356437508878074 6.6849318747267947 3.0 125.64679497364583 9.7110161786189355 3.0 6.7532759132648934 21.57196172458703 3.0 101.35784159541122 22.685231301440563 3.0 179.77511561357451 30.620542143952381 3.0 197.39580336947145 38.43232760473542 3.0 113.50790903830926 40.068990417193803 3.0 66.46141990387774 31.061489121257196 3.0 145.95278766014118 35.664491422837365 3.0 50.314530949715703 48.636676689555706 3.0 11.491350042192517 45.232263962207981 3.0 154.45147237407474 42.376187159999503 3.0 195.49700267935631 54.46285564438093 3.0 19.474381732536493 53.074067315100095 3.0 104.3718684134179 54.487433903212967 3.0 82.180238978999697 65.511770403808214 3.0 184.44686670074771 64.70720023587846 3.0 99.713493936022857 74.587010774464744 3.0 173.42258770763081 74.166244003475001 3.0 141.58846377500817 78.011048022591439 3.0 136.67049362825696 79.889842267094281 3.0 70.806580939840302 82.318068073785852 3.0 85.591609460787296 83.741977028537391 3.0 183.70399806743012 87.637339618664825 3.0 7.8388984862395352 98.388597976947338 3.0 181.56230161181634 105.28689391818646 3.0 74.454770935028321 104.04304387624158 3.0 133.83745349088235 99.483311349608343 3.0 161.95860252029735 109.43991611110485 3.0 2.604196630528539 111.6359469024684 3.0 186.43981606491204 113.78385815403726 3.0 141.65305444787964 116.47318294032431 3.0 182.06381966350509 129.32895056680965 3.0 36.080865104842871 117.28460358787102 3.0 66.443235742027952 123.69110404106287 3.0 74.520329382584222 132.64529756377385 3.0 27.397604818633649 127.40199077835938 3.0 2.604196630528539 132.03703339742293 3.0 196.88901804257233 136.07793655473517 3.0 10.608567041507696 149.55789176189549 3.0 19.486932157324663 156.72384262499838 3.0 167.27261070239814 153.76129939831773 3.0 32.257371045622449 153.87648393687289 3.0 160.98986738365579 159.98193762713024 3.0 117.57842045315761 154.07919986742365 3.0 41.547052561160442 164.27566412199437 3.0 147.33405513723238 162.43118891948018 3.0 92.213122244906032 159.22979847782338 3.0 165.62806190419403 166.35672892750253 3.0 96.585494057601736 168.90775675465639 3.0 179.93036580770874 171.03104884756365 3.0 102.49092059860119 171.34539357202036 3.0 147.45530977774374 179.97672026758278 3.0 186.47352393609586 184.03400545262596 3.0 194.80846187050503 193.40657250610198 3.0 92.250427284052421 197.39580336947145 3.0 13.530561989663838 197.39580336947145 3.0 188.38663740939518 197.38980273197103 3.0 93.858038083425143 6.4108280826905144 2 120.27866412779825 12.227582776246473 2 74.172747100832837 9.9131304865880274 2 15.187645413142771 26.261117177393103 2 105.28098398835414 25.323202593973917 2 135.24691520335045 37.16381911133162 2 24.857624474249253 29.080592452518154 2 182.66829086143616 34.638415366409625 2 195.32408678109402 31.274645920364684 2 118.37918010359598 39.955744039368803 2 72.886356572900212 41.056208830598585 2 139.43407265824357 39.910675634620304 2 28.595821833496878 34.543189206522499 2 161.43453564347791 54.564347874453155 2 190.14077009753902 54.670401016934299 2 26.777708766874799 58.262627825399122 2 90.738062497865684 49.659754996714952 2 82.484190812861058 58.026845342273234 2 197.39580336947145 67.230990935905155 2 78.863974507163434 72.743726799009337 2 105.55546344858563 76.212374012710313 2 173.03459474866378 63.494002762888293 2 150.70624129651517 71.880599137384678 2 137.02906086765407 85.127701026470376 2 74.840572983818731 89.743672094749101 2 93.051831148089548 84.562430404678366 2 172.28649427126931 96.408245172934997 2 70.525560031353081 87.279536167643982 2 189.18643191038078 94.230051444749918 2 3.1959171267942601 92.830541111906285 2 195.07947614292732 106.19947404753114 2 73.446520901911285 109.58495974690484 2 135.90779975132676 115.08156071310734 2 154.31281688280126 106.80588601535243 2 7.1006990264954819 109.86440995950781 2 192.31556585525496 121.53790314854893 2 150.96123440714922 123.37274534645218 2 178.11241983948335 118.71720343895063 2 62.453535658897415 131.48584373422008 2 70.131961476165031 120.39730407663706 2 28.586521536826403 131.77168746850111 2 22.022171001509559 139.40775693961135 2 2.604196630528539 146.15160511552151 2 36.066067507162664 141.69469878858291 2 15.907435209402655 139.55858203812775 2 142.79125619234526 141.21652611093191 2 28.467703383162149 162.38648450823948 2 156.79946985053613 150.59345719081571 2 8.2036905851748632 153.4997001794477 2 49.094343903395853 153.9995634971674 2 153.89875857459376 155.45814153084564 2 101.13051390113252 164.33028027041453 2 156.90149383610597 169.99906085667709 2 92.526442877266589 178.0185338801227 2 196.97090205709512 166.1830570196995 2 176.88891981756694 181.51302140823285 2 105.36006948207731 177.79910133887611 2 152.45205930911033 184.95041805344951 2 191.40025510156019 183.46189437823284 2 197.39580336947145 190.14190430421885 2 88.726361406946481 188.57361784113533 2 14.538527012636386 191.0847440551137 2 175.47431669873896 197.39580336947145 2 28.683032487253616 3.5566651429548894 2 82.274308202649465 14.573427100881938 2 122.58709982962012 2.604196630528539 2 77.706947778176513 13.388178397640463 2 3.0437664436336282 18.636374180494112 2 25.51416334029372 24.233154008580485 2 56.200663698641236 17.725293461259927 2 103.97201198414615 18.378999853152546 2 128.25617015223915 31.987748832079301 2 19.800306265176307 28.685984976515822 2 172.47449002747993 37.917813035817701 2 190.01593189988213 33.653301170680948 2 69.857919069617296 37.127553650519602 2 144.5488339498128 40.900453588852272 2 32.067036402986616 39.386755185806656 2 11.078440387911179 40.554795734289179 2 154.17771725038426 51.917421131319394 2 193.98374919827771 45.884279624357177 2 107.30082857798922 59.718626218161155 2 87.251940240054338 57.893621294561051 2 75.625251459452613 64.464128904223074 2 192.28539435106362 68.588081799148696 2 73.214207884531191 73.424376925944188 2 92.539801408797416 70.381509965882458 2 140.37567002131553 72.663585109807016 2 135.04632896830461 73.998903506647565 2 75.581480564699262 84.692484691615221 2 79.636215657502262 90.237417216185051 2 186.92783956388857 84.249877825041551 2 61.624003905104047 85.438721527841608 2 179.95805754091356 94.101432029051082 2 13.416118089316464 92.778464294111913 2 178.22059455535893 98.90253603833645 2 137.22262474874032 104.97927965167047 2 166.93976352521582 110.2318576672363 2 7.2946636927559041 116.23154450668619 2 192.50332128329737 112.18910644512374 2 146.30877793920166 114.26176019662536 2 190.55393662956848 126.20132612918982 2 27.701549645211898 122.4721042593988 2 68.044382547695733 133.80305960379349 2 81.283716680577299 129.65987777130147 2 32.998533349655816 129.55267635782147 2 149.97223122702945 138.51275225963639 2 25.360462037745389 135.45398957141609 2 28.124332470697073 146.7880571704531 2 195.16156502976466 140.2904334484451 2 43.307480923715886 136.36434389196208 2 12.430054480027177 145.59370821629255 2 195.80394116736886 148.15760684369016 2 23.547961530302317 148.69847298926965 2 26.884741043644574 156.85577992670039 2 165.86433213763885 159.20784023654613 2 3.5754974471468612 161.18689293008373 2 121.93698730222584 158.09130502941292 2 45.286923325571841 157.34986369890925 2 49.536672332817012 165.81907902157712 2 142.52629939867444 161.13037458846173 2 93.649701441308778 165.25303352056849 2 161.16425649522813 164.73134729123245 2 88.330201092736303 172.88282752745278 2 107.20551951868224 172.98879666290193 2 152.55699668810246 179.76830447279738 2 30.285382662960174 180.69718991965289 2 178.27192893054965 187.48920723409978 2 190.36708806516708 192.72078492795873 2 87.072775343835602 193.47848958721667 2 10.40402321316915 193.94033268420387 2 180.89770942418141 191.53506931958975 2 90.715453035170469 10.168825076099205 2 115.20166205399194 16.0180959190827 2 68.972866427635068 10.447195233438196 2 17.341512553197209 12.511309382158911 2 11.505412738899215 20.564350532378722 2 62.213883986401235 29.071061232170727 2 114.28291035989533 21.127803799785351 2 136.83979975365935 32.313136707500071 2 35.559775456483614 24.164440432868041 2 180.05839365021589 39.910094895265829 2 187.65911802944061 29.402174727063478 2 119.12219854866835 33.800270119337341 2 68.79205390742537 44.77344835647348 2 140.64031518627871 44.547611803737709 2 35.183442844204336 35.963081758276608 2 15.186650681943803 50.344755525541387 2 159.29874322737649 44.850944549903168 2 189.00210750475054 45.88382834956311 2 24.479311995409809 63.173879268115776 2 95.673823612336633 54.220372684491267 2 87.236165387596202 67.356552349372322 2 192.93392116132677 58.818565890236414 2 87.370043778641673 73.206511236739075 2 145.7134680303661 67.33175370958493 2 132.54103225105976 82.782579707961858 2 80.858406881927351 98.454695051195813 2 88.124799943810544 92.826174636054233 2 178.64927608832946 88.326653877679519 2 188.0053102394296 99.083007442487727 2 6.6480186479860492 88.960150862752073 2 192.97852951807417 97.90663570856124 2 69.913961832312012 112.91135973300743 2 127.62483325841511 109.95569121451609 2 159.231345455309 105.1947629177379 2 2.604196630528539 106.22135111459065 2 187.18098220849623 120.68181418497441 2 174.49668867819454 123.94044425187886 2 39.141716224299344 122.36981249443195 2 57.379003413300133 126.89988245835119 2 78.523153961086038 123.58874135231321 2 32.035694228889277 140.08004598462719 2 146.52010630331839 129.11338077983547 2 20.314883205074594 144.28994204288855 2 2.604196630528539 136.76153514864041 2 37.345007358798156 136.39621794728427 2 190.28767870388984 140.57365131189792 2 11.038990534773793 140.89867044384954 2 173.89505086838 149.10276789030712 2 197.59580336947147 156.09132956463077 2 18.27597388803467 152.57106789222036 2 162.53137109360765 151.39497359768995 2 35.96030142
[...]
<PointData>
<DataArray Name="Points" NumberOfComponents="3" format="ascii" type="Float32">33.03926977069758 2.404196630528539 3.0 86.356437508878074 6.6849318747267947 3.0 125.64679497364583 9.7110161786189355 3.0 6.7532759132648934 21.57196172458703 3.0 101.35784159541122 22.685231301440563 3.0 179.77511561357451 30.620542143952381 3.0 197.39580336947145 38.43232760473542 3.0 113.50790903830926 40.068990417193803 3.0 66.46141990387774 31.061489121257196 3.0 145.95278766014118 35.664491422837365 3.0 50.314530949715703 48.636676689555706 3.0 11.491350042192517 45.232263962207981 3.0 154.45147237407474 42.376187159999503 3.0 195.49700267935631 54.46285564438093 3.0 19.474381732536493 53.074067315100095 3.0 104.3718684134179 54.487433903212967 3.0 82.180238978999697 65.511770403808214 3.0 184.44686670074771 64.70720023587846 3.0 99.713493936022857 74.587010774464744 3.0 173.42258770763081 74.166244003475001 3.0 141.58846377500817 78.011048022591439 3.0 136.67049362825696 79.889842267094281 3.0 70.806580939840302 82.318068073785852 3.0 85.591609460787296 83.741977028537391 3.0 183.70399806743012 87.637339618664825 3.0 7.8388984862395352 98.388597976947338 3.0 181.56230161181634 105.28689391818646 3.0 74.454770935028321 104.04304387624158 3.0 133.83745349088235 99.483311349608343 3.0 161.95860252029735 109.43991611110485 3.0 2.604196630528539 111.6359469024684 3.0 186.43981606491204 113.78385815403726 3.0 141.65305444787964 116.47318294032431 3.0 182.06381966350509 129.32895056680965 3.0 36.080865104842871 117.28460358787102 3.0 66.443235742027952 123.69110404106287 3.0 74.520329382584222 132.64529756377385 3.0 27.397604818633649 127.40199077835938 3.0 2.604196630528539 132.03703339742293 3.0 196.88901804257233 136.07793655473517 3.0 10.608567041507696 149.55789176189549 3.0 19.486932157324663 156.72384262499838 3.0 167.27261070239814 153.76129939831773 3.0 32.257371045622449 153.87648393687289 3.0 160.98986738365579 159.98193762713024 3.0 117.57842045315761 154.07919986742365 3.0 41.547052561160442 164.27566412199437 3.0 147.33405513723238 162.43118891948018 3.0 92.213122244906032 159.22979847782338 3.0 165.62806190419403 166.35672892750253 3.0 96.585494057601736 168.90775675465639 3.0 179.93036580770874 171.03104884756365 3.0 102.49092059860119 171.34539357202036 3.0 147.45530977774374 179.97672026758278 3.0 186.47352393609586 184.03400545262596 3.0 194.80846187050503 193.40657250610198 3.0 92.250427284052421 197.39580336947145 3.0 13.530561989663838 197.39580336947145 3.0 188.38663740939518 197.38980273197103 3.0 93.858038083425143 6.4108280826905144 2 120.27866412779825 12.227582776246473 2 74.172747100832837 9.9131304865880274 2 15.187645413142771 26.261117177393103 2 105.28098398835414 25.323202593973917 2 135.24691520335045 37.16381911133162 2 24.857624474249253 29.080592452518154 2 182.66829086143616 34.638415366409625 2 195.32408678109402 31.274645920364684 2 118.37918010359598 39.955744039368803 2 72.886356572900212 41.056208830598585 2 139.43407265824357 39.910675634620304 2 28.595821833496878 34.543189206522499 2 161.43453564347791 54.564347874453155 2 190.14077009753902 54.670401016934299 2 26.777708766874799 58.262627825399122 2 90.738062497865684 49.659754996714952 2 82.484190812861058 58.026845342273234 2 197.39580336947145 67.230990935905155 2 78.863974507163434 72.743726799009337 2 105.55546344858563 76.212374012710313 2 173.03459474866378 63.494002762888293 2 150.70624129651517 71.880599137384678 2 137.02906086765407 85.127701026470376 2 74.840572983818731 89.743672094749101 2 93.051831148089548 84.562430404678366 2 172.28649427126931 96.408245172934997 2 70.525560031353081 87.279536167643982 2 189.18643191038078 94.230051444749918 2 3.1959171267942601 92.830541111906285 2 195.07947614292732 106.19947404753114 2 73.446520901911285 109.58495974690484 2 135.90779975132676 115.08156071310734 2 154.31281688280126 106.80588601535243 2 7.1006990264954819 109.86440995950781 2 192.31556585525496 121.53790314854893 2 150.96123440714922 123.37274534645218 2 178.11241983948335 118.71720343895063 2 62.453535658897415 131.48584373422008 2 70.131961476165031 120.39730407663706 2 28.586521536826403 131.77168746850111 2 22.022171001509559 139.40775693961135 2 2.604196630528539 146.15160511552151 2 36.066067507162664 141.69469878858291 2 15.907435209402655 139.55858203812775 2 142.79125619234526 141.21652611093191 2 28.467703383162149 162.38648450823948 2 156.79946985053613 150.59345719081571 2 8.2036905851748632 153.4997001794477 2 49.094343903395853 153.9995634971674 2 153.89875857459376 155.45814153084564 2 101.13051390113252 164.33028027041453 2 156.90149383610597 169.99906085667709 2 92.526442877266589 178.0185338801227 2 196.97090205709512 166.1830570196995 2 176.88891981756694 181.51302140823285 2 105.36006948207731 177.79910133887611 2 152.45205930911033 184.95041805344951 2 191.40025510156019 183.46189437823284 2 197.39580336947145 190.14190430421885 2 88.726361406946481 188.57361784113533 2 14.538527012636386 191.0847440551137 2 175.47431669873896 197.39580336947145 2 28.683032487253616 3.5566651429548894 2 82.274308202649465 14.573427100881938 2 122.58709982962012 2.604196630528539 2 77.706947778176513 13.388178397640463 2 3.0437664436336282 18.636374180494112 2 25.51416334029372 24.233154008580485 2 56.200663698641236 17.725293461259927 2 103.97201198414615 18.378999853152546 2 128.25617015223915 31.987748832079301 2 19.800306265176307 28.685984976515822 2 172.47449002747993 37.917813035817701 2 190.01593189988213 33.653301170680948 2 69.857919069617296 37.127553650519602 2 144.5488339498128 40.900453588852272 2 32.067036402986616 39.386755185806656 2 11.078440387911179 40.554795734289179 2 154.17771725038426 51.917421131319394 2 193.98374919827771 45.884279624357177 2 107.30082857798922 59.718626218161155 2 87.251940240054338 57.893621294561051 2 75.625251459452613 64.464128904223074 2 192.28539435106362 68.588081799148696 2 73.214207884531191 73.424376925944188 2 92.539801408797416 70.381509965882458 2 140.37567002131553 72.663585109807016 2 135.04632896830461 73.998903506647565 2 75.581480564699262 84.692484691615221 2 79.636215657502262 90.237417216185051 2 186.92783956388857 84.249877825041551 2 61.624003905104047 85.438721527841608 2 179.95805754091356 94.101432029051082 2 13.416118089316464 92.778464294111913 2 178.22059455535893 98.90253603833645 2 137.22262474874032 104.97927965167047 2 166.93976352521582 110.2318576672363 2 7.2946636927559041 116.23154450668619 2 192.50332128329737 112.18910644512374 2 146.30877793920166 114.26176019662536 2 190.55393662956848 126.20132612918982 2 27.701549645211898 122.4721042593988 2 68.044382547695733 133.80305960379349 2 81.283716680577299 129.65987777130147 2 32.998533349655816 129.55267635782147 2 149.97223122702945 138.51275225963639 2 25.360462037745389 135.45398957141609 2 28.124332470697073 146.7880571704531 2 195.16156502976466 140.2904334484451 2 43.307480923715886 136.36434389196208 2 12.430054480027177 145.59370821629255 2 195.80394116736886 148.15760684369016 2 23.547961530302317 148.69847298926965 2 26.884741043644574 156.85577992670039 2 165.86433213763885 159.20784023654613 2 3.5754974471468612 161.18689293008373 2 121.93698730222584 158.09130502941292 2 45.286923325571841 157.34986369890925 2 49.536672332817012 165.81907902157712 2 142.52629939867444 161.13037458846173 2 93.649701441308778 165.25303352056849 2 161.16425649522813 164.73134729123245 2 88.330201092736303 172.88282752745278 2 107.20551951868224 172.98879666290193 2 152.55699668810246 179.76830447279738 2 30.285382662960174 180.69718991965289 2 178.27192893054965 187.48920723409978 2 190.36708806516708 192.72078492795873 2 87.072775343835602 193.47848958721667 2 10.40402321316915 193.94033268420387 2 180.89770942418141 191.53506931958975 2 90.715453035170469 10.168825076099205 2 115.20166205399194 16.0180959190827 2 68.972866427635068 10.447195233438196 2 17.341512553197209 12.511309382158911 2 11.505412738899215 20.564350532378722 2 62.213883986401235 29.071061232170727 2 114.28291035989533 21.127803799785351 2 136.83979975365935 32.313136707500071 2 35.559775456483614 24.164440432868041 2 180.05839365021589 39.910094895265829 2 187.65911802944061 29.402174727063478 2 119.12219854866835 33.800270119337341 2 68.79205390742537 44.77344835647348 2 140.64031518627871 44.547611803737709 2 35.183442844204336 35.963081758276608 2 15.186650681943803 50.344755525541387 2 159.29874322737649 44.850944549903168 2 189.00210750475054 45.88382834956311 2 24.479311995409809 63.173879268115776 2 95.673823612336633 54.220372684491267 2 87.236165387596202 67.356552349372322 2 192.93392116132677 58.818565890236414 2 87.370043778641673 73.206511236739075 2 145.7134680303661 67.33175370958493 2 132.54103225105976 82.782579707961858 2 80.858406881927351 98.454695051195813 2 88.124799943810544 92.826174636054233 2 178.64927608832946 88.326653877679519 2 188.0053102394296 99.083007442487727 2 6.6480186479860492 88.960150862752073 2 192.97852951807417 97.90663570856124 2 69.913961832312012 112.91135973300743 2 127.62483325841511 109.95569121451609 2 159.231345455309 105.1947629177379 2 2.604196630528539 106.22135111459065 2 187.18098220849623 120.68181418497441 2 174.49668867819454 123.94044425187886 2 39.141716224299344 122.36981249443195 2 57.379003413300133 126.89988245835119 2 78.523153961086038 123.58874135231321 2 32.035694228889277 140.08004598462719 2 146.52010630331839 129.11338077983547 2 20.314883205074594 144.28994204288855 2 2.604196630528539 136.76153514864041 2 37.345007358798156 136.39621794728427 2 190.28767870388984 140.57365131189792 2 11.038990534773793 140.89867044384954 2 173.89505086838 149.10276789030712 2 197.59580336947147 156.09132956463077 2 18.27597388803467 152.57106789222036 2 162.53137109360765 151.39497359768995 2 35.960301422321912 156.82931155851085 2 2.6305657039502353 156.35189619754419 2 126.46955412219029 159.44840143151984 2 40.601816354641251 159.86576857956396 2 44.095649740251915 151.88392832818613 2 144.6021735259605 156.45402018072696 2 96.372545435507277 156.3222741570265 2 164.43675041133903 174.25739949335434 2 96.110143263167629 182.69163862933911 2 197.59580336947147 171.1216573127968 2 175.93852485698699 175.89511898825839 2 105.26176556047385 185.07534669403859 2 159.16097795059835 180.21956489225661 2 197.39580336947145 185.19443218545948 2 81.225357372382277 189.65283522248552 2 19.880719987767634 182.86934720501395 2 179.8319424761778 196.06735935193259 2 37.582413784366381 2.404196630528539 2 81.782596145552617 9.0369085731254888 2 127.21354629254415 4.8534778984345355 2 10.070965007624066 25.4228000622983 2 18.380418495530908 17.096020347364433 2 60.17696555730069 14.769277278910833 2 132.71513099211987 29.609060259909054 2 175.36148462591856 28.708859282875952 2 192.47821997398873 40.947793808760906 2 114.52364901636977 35.546638429983432 2 65.316889430937707 35.57080305247537 2 146.18537602113133 30.787967270237967 2 16.18582991564509 45.301468320978096 2 152.57540217591284 47.064858172809451 2 197.39580336947145 49.772003313213098 2 20.555159453657875 57.617039471497954 2 83.24879306818795 70.234037077176325 2 177.2119282313742 71.693346792762426 2 146.61916643629542 77.114984575959397 2 132.07024614786462 77.850700518842714 2 74.44903571153165 79.085559442323046 2 80.769392439265545 85.351864941450572 2 188.57514097161859 89.11914491175385 2 12.009402247688534 101.2365869527667 2 186.28446273818551 103.85580283898697 2 74.883700201625771 99.259091215669798 2 129.86955734383631 102.6784897641665 2 157.5862006466653 111.96976283774097 2 2.604196630528539 116.69790729917526 2 184.6978091815669 109.14531009889207 2 141.54344574426906 111.38720342814693 2 184.65557789751236 125.03116953211789 2 30.821429344999377 118.39519494259389 2 66.819635563130547 128.62652114644982 2 71.642172410409088 129.2108422838196 2 23.060989004433189 125.21067162912455 2 145.41801512640907 136.97156434733787 2 6.8112949894197161 134.75363300422489 2 197.39580336947145 131.27930018539706 2 6.0313180584758603 149.35770610989547 2 147.18995159679693 150.16427969276305 2 23.174421595859624 153.61051864068557 2 171.6911916410946 152.99590669517204 2 156.2433430654032 160.05533678443589 2 13.994209782021217 162.54010453901694 2 37.266114554543215 165.68406277750151 2 151.23978041294166 165.58119866486197 2 89.576266450985543 155.33585344003896 2 170.29968004422653 166.51104780758996 2 93.228515087985215 172.85487318863738 2 98.243724380567386 173.41636796895313 2 145.85504268432129 184.82699261197925 2 181.5808746079467 183.70637642471539 2 197.39580336947145 197.39580336947145 2 92.21152619610038 192.35693444036716 2 17.12946584754053 195.05149418753339 2 192.68998272710189 197.39580336947145 2 90.240702990382275 2.604196630528539 2 124.74333785445843 14.826341473690173 2 74.420587970065384 4.8275423905409518 2 16.360431612575955 21.32117604842864 2 109.65721184023842 27.594675577229506 2 130.18122637991715 36.776630683289497 2 29.84736354441559 29.14716433903757 2 186.86057542981263 37.480083967780679 2 196.74015955840363 26.48027285080618 2 122.88124157399417 37.347817132507075 2 77.513603572273311 43.32461870277772 2 140.92477214552821 35.323682570808622 2 158.94691184533343 50.016670207505321 2 185.08784885204361 55.055746499835905 2 23.997604620882317 54.341341399926819 2 86.978387608540956 53.102174247757738 2 77.6323136718418 57.263248209565127 2 193.70061708469589 63.746477409066976 2 75.5182850231418 69.055024935617894 2 108.41889612023432 72.107470785283013 2 173.25445037150206 68.675322938215089 2 153.10763756288628 76.445315897998199 2 132.44593376173697 87.915877766055019 2 72.234493773333725 93.93071023361405 2 89.173197492001265 87.757654063389509 2 175.26616948610774 92.431395642657847 2 65.819961281576639 88.635883425317559 2 194.04599591538897 92.837446218847347 2 2.604196630528539 97.9859918108627 2 189.6898942586626 107.73641477959218 2 77.615097256674247 107.60794676297638 2 136.59742603083342 110.12993840717161 2 152.42171052959299 111.64935659621399 2 10.316679012067414 106.03768672487752 2 195.58872255183246 117.6245326658256 2 145.72605793994637 123.96511663914889 2 179.67807855821786 123.66694932848644 2 62.310638797467142 126.46483356757639 2 73.180605047220354 124.57232323627811 2 30.425114508801965 135.96581669492576 2 20.579436846499355 134.68615672868953 2 6.5166912396477432 141.48880212943286 2 192.62150113816543 133.27736183068342 2 138.86875334150534 138.1339158152623 2 14.519052783778788 157.62032868103344 2 33.885318363972601 162.52389404180207 2 158.49148161508819 155.45129324617506 2 7.263930550182053 157.69965772494911 2 151.33964136724447 159.82347658955578 2 158.2573321070326 174.90182118475488 2 97.611022332793766 178.0640696523746 2 172.19701539675765 179.46562589334323 2 101.54732399002201 181.19352510152871 2 157.65182991596186 185.20289412666395 2 189.08369303280213 187.98277663368472 2 193.53067637027385 187.92582820482795 2 89.871981047786861 183.53807077496558 2 17.057676970508822 187.03695400019532 2 171.51794828466055 194.50635679141328 2 85.906048520405989 11.735015028039625 2 121.09647160510571 7.2768577720788246 2 72.878559751393084 14.577846831825314 2 8.9601189815473408 16.448344232236714 2 26.647333943456047 19.909076017339444 2 53.006818876361898 21.816135044306758 2 108.86776230830569 17.269495295264026 2 128.77232047743917 26.434013323425212 2 20.682441285453521 23.614252828774436 2 175.90755343683813 34.009433247986678 2 193.92936708665661 36.037889799203562 2 105.45523942928918 31.273881556023515 2 65.986465531168648 40.248413282273553 2 149.50193497045973 39.325066434075261 2 36.989269037276671 40.335326409198508 2 7.7717186071785749 36.799697578917481 2 153.94671812302286 57.026845590520168 2 197.39580336947145 42.984286521171313 2 79.227042559080743 61.73068097379744 2 192.6795529296767 73.417232695744161 2 69.691540528535981 77.05367425409078 2 79.205028666843177 80.658769148384664 2 83.113415454578444 93.880431129581851 2 191.56992997380993 82.960342218003262 2 66.067115721596025 83.515351374848692 2 184.58133254716395 92.415592480363628 2 8.3570877281909066 93.644880709953924 2 176.84484099261948 103.81881391720864 2 70.186958595763571 106.24855926290134 2 132.47240227807151 107.03304359495057 2 164.60995241012716 114.94970372404144 2 12.165288956799207 115.59876486300533 2 190.41887846790948 116.81377643995408 2 147.84503760324387 119.21716858628336 2 187.00134033582125 129.74291460399408 2 34.537069826854982 121.86025922496111 2 76.802217932662572 127.99477423400212 2 31.710916007296696 125.39963562360005 2 148.08237911930701 143.1170330252119 2 23.567581249903792 130.58692060365371 2 24.616060216131011 143.72542008385426 2 197.39580336947145 144.10881679314014 2 16.315658945015983 148.5766534030644 2 143.9391104160853 146.24340023431489 2 197.39580336947145 151.98908703247207 2 27.922851035250762 151.8296688684722 2 173.81729104112446 163.54744027425255 2 23.097833361319726 159.56515982770603 2 169.83584623228367 161.30433731453354 2 4.1476178075857328 165.97084770773924 2 46.116589649495559 162.31272268628769 2 44.887778826169765 167.41477898211468 2 144.11034177997988 166.20592333202052 2 96.518837023565396 161.49662442034224 2 156.22679994168948 165.04784302459089 2 87.405664818439107 177.75098166531978 2 105.52688799294626 167.7259683637827 2 153.00572168852722 174.60518587301527 2 173.71111978596031 185.40712266637681 2 185.68967555863105 192.99326706625999 2 82.052168680161756 194.79061900506261 2 5.7002198041723737 192.45960981655625 2 184.31717721792651 188.23053815348493 2 120.2151643157696 17.421014772517015 2 13.939545164647235 16.555133422087252 2 57.523219165313662 30.802551322728533 2 109.28736917101043 22.422138767261011 2 141.42694425527858 30.641971331610861 2 30.495367585937696 24.043879612966109 2 184.79308330418874 42.077259713222134 2 191.81726026039019 26.710494913872651 2 115.41045044788157 30.157061465128674 2 141.56348919275501 49.427570892082784 2 34.319884722931221 31.282582425851842 2 163.81171108245084 48.285664753949355 2 192.24040746070114 50.2889215344984 2 95.671728873415091 49.212236652985553 2 188.80832041532662 62.105395609183624 2 82.891977108246977 75.866484721642024 2 178.10421730823552 64.879912977288285 2 145.68107233095174 72.125916078687496 2 128.18949791635424 81.000443391629133 2 77.27601311081402 94.741585586069064 2 84.402349394950051 88.895522785792267 2 183.22986308323445 97.940746427347761 2 11.319480682251434 87.047513503804197 2 191.32402864027105 102.81756923473874 2 65.902177257278453 116.09212353283522 2 132.00017589970014 111.82124308194804 2 160.00502513490684 100.09119031587622 2 6.2496403550439927 102.88439235221799 2 183.10570798506302 117.53459515538896 2 177.2004390582201 128.32955769477468 2 37.127661425865618 126.72642801064259 2 52.557697410810853 126.82197677535014 2 75.254803897726603 119.84631534447483 2 27.246331524838467 139.93366950516872 2 16.140831642606308 143.79179515734384 2 2.604196630528539 141.365992338593 2 34.583057391008126 133.37644770083267 2 8.0113766159502138 145.48974679885214 2 169.60904518362145 147.22193136935542 2 197.59580336947147 160.2317485423327 2 13.331264329713431 152.98390785852783 2 163.02967809355653 155.78352362260958 2 31.366737872435827 158.47161103773107 2 151.38847568569543 147.12146352246447 2 2.604196630528539 151.6937430191409 2 40.622587567694147 155.43598544283054 2 149.24124024412845 154.73956603640877 2 162.01169288612951 169.7654988357356 2 95.038362662690588 187.58717338992156 2 197.39580336947145 175.86643891311749 2 174.69342842625792 170.90196199787985 2 100.0813416876188 186.08936177388364 2 163.50704046299501 183.09044547368589 2 197.39580336947145 180.5826305570279 2 84.491121371082727 185.60430233545608 2 184.02768762032355 197.39580336947145 2 97.290488299252374 70.598903732951257 2 32.6586283886353 149.69901800719128 2 39.438881523250984 139.70673584364289 2 12.769422111139008 136.626