<?xml version="1.0" ?>
<VTKFile byte_order="LittleEndian" type="UnstructuredGrid" version="0.1">
<UnstructuredGrid>
<Piece NumberOfCells="0" NumberOfPoints="155">
<Points>
<DataArray NumberOfComponents="3" format="ascii" type="Float32">0 0 0 34.70249454572869 4.2287537961714632 2.5 74.559531144736908 16.720039519392952 3.0 23.823643034489056 17.78503570796456 3.0 61.876174514236574 17.816353165310382 2.5 101.96217551175181 20.997427374204907 3.0 138.95504451903847 25.463847671982695 2.5 22.01825458643868 34.944482799303465 2.5 181.13420274247562 26.768718128648555 2.5 111.13133548398838 40.187453322945366 2.5 69.176348800154386 31.553368069634487 2.5 27.244798653795137 43.330421738967964 2.5 101.83996524859363 51.886421460196885 3.0 93.083170984023155 60.399275034648944 2.5 71.403655710697436 65.014163048819569 2.5 181.27494574642904 80.834032565440694 3.0 60.256498236124386 90.0541342778657 2.5 179.16347497664501 130.80219383002458 2.5 40.502329201705841 113.32153126390148 2.5 76.633466580262322 131.48536369432608 2.5 150.02507919065437 132.18382482983642 2.5 15.562927883852756 130.34994665364314 2.5 2.85 127.05155039988705 2.5 33.358276899269327 143.26969356210031 3.0 44.482692714551312 142.19788958851498 2.5 139.54721055936326 151.89897086083221 2.5 176.01639054684114 143.72070604910846 2.5 189.8591932057293 144.73285305937043 2.5 7.7871972602986306 163.89489001155161 2.5 117.94787491218933 155.15118792216745 2.5 42.56426392105891 168.25465654139921 2.5 51.262516842352845 158.09090844071068 2.5 91.818967659748139 158.04241088430575 2.5 192.84395950064351 177.27816689500764 2.5 181.16594007036628 171.42068137013035 2.5 24.289171327521263 182.07785417186417 2.5 25.134256382693241 7.7377906822725695 2 91.866184187687082 5.6331061864562031 2 14.975293771380946 12.818612230855903 2 63.241456085890007 23.388469112856399 2 103.34739923884146 25.834104463385362 2 60.90894402751195 40.114106673084748 2 22.018142133151912 45.943369190785532 2 26.83122219794738 57.42868595317281 2 101.09008831746709 57.52103821636657 2 92.067815833743808 48.527738559151508 2 134.86844433057439 114.54171745354472 2 43.197792438947559 129.18831622122002 2.5 63.155129065782297 131.20288315728004 2 141.53802372221577 132.45200902889479 2 38.510395185752621 145.21685896952275 2 188.14608524601309 134.69706656804038 2.5 47.803024754657294 147.03997133731838 2 171.30237468974246 139.95517018442379 2 192.25377355819481 150.23633999508746 2 19.04989346946973 162.8212344510444 2 163.47799107476314 144.7630519194993 2 27.798204443891386 164.32804256286306 2.5 125.64811485719592 154.42869454240821 2 37.632484528134796 150.52663847187679 2 49.38377715021614 152.92135172915968 2 100.59988989899344 160.33825992906372 2 196.95 164.80039309507265 2 23.837800645014163 188.34514648570351 2 80.49900910204606 15.847048113113388 2 101.38418901316729 16.26785039753954 2 110.22976794684793 31.320866096789622 2 13.615366652185937 38.738943956601354 2.5 16.090393411592636 59.351474513592912 2 73.070043194277332 58.597473477528617 2 69.363350701890383 70.256793415348781 2.5 176.56671312825671 76.770598544100736 2 138.51862419334114 71.972586751970638 2.5 133.44891698066033 73.01642418570556 2 189.37787506923428 81.668077970589096 2 68.058464983892932 102.93938343831653 2 71.745722511172431 134.13995059863905 2 10.745884637929962 128.69858223457987 2 137.92014615780514 146.12330109112838 2 175.61922378096489 152.43102338692196 2 174.44298175410827 158.03373771425183 2 138.51606523049065 158.83689335618868 2 88.049484633804411 171.84599833757116 2 181.84392244028967 176.09968063886703 2.5 108.48782129492449 173.09687832341106 2 92.835743333236152 12.507806993168135 2 20.05588055595754 10.894366764242578 2.5 186.7890124382661 26.585902584813947 2 65.589006404388172 44.636378054287732 2 139.52437535712107 48.29547619610441 2 14.11931246108205 51.804292328539596 2 98.770333168771558 63.218291588792461 2.5 103.51314783927567 67.34478437473804 2 181.80565047558557 69.330742655151042 2 145.98120990201232 65.711562743975989 2 176.48278486912659 86.067403558028261 2 67.247376664343847 97.245723599046471 2 7.9192520180467971 85.90107862310802 2.5 126.49363009334989 110.59043154857194 2 138.90517881113976 120.01845238230449 2.5 41.896725176367731 123.42912239207057 2 79.65156454018117 122.09403625898139 2 189.05874696011693 139.63410112236764 2 135.97481452026065 140.8960158999744 2 194.09206218436066 156.09899042796246 2 156.33141427810139 142.45852929851972 2 97.156152390017283 155.72303957648546 2 196.95 169.90019366448496 2 186.6021836817296 178.33388860443793 2 61.646025354661795 12.460676392203846 2 175.24079989043608 29.138890156925175 2 145.2192625145303 27.717379555029744 2 187.75174474693455 69.814227598711952 2 4.5623364155709369 120.95628640331965 2 18.332786897963487 124.34989083266562 2.5 13.223214440121156 165.55246750385894 2 37.296315942860687 167.43441096389077 2.5 18.483722305996849 190.52804714792777 2 75.877608998788887 54.012564218340891 2 172.55237717657346 90.509459920656042 2 64.952599462174007 90.291329293340198 2 80.287713517494197 106.37906254522575 2 165.75470736308515 139.34110474378986 2 87.352004268074211 13.934412436359331 2 7.924019644693594 16.134348877245976 2 29.30926233375526 18.410970331344526 2 110.34165317460608 13.734298912223414 2 37.452652258316817 39.880403924840358 2 10.073400219432681 34.269555781874217 2 191.26106381752885 76.111395549327412 2 174.31476010629544 165.45475575173413 2.5 23.765741139521833 161.84571129589398 2 6.3216687635134106 168.81987319582262 2 141.40973398171582 165.91228842187405 2 106.52734308259599 164.91565211658556 2 68.051549468926325 16.78338511553023 2 32.553044296856342 21.454961975161552 2 144.02337202203211 51.332213021688531 2 127.92523983686712 84.501765539248979 2 52.019600187109667 128.42923851378458 2 77.262679628963369 116.31433703690779 2 141.55358071193191 126.68558858805626 2 182.34814777171965 134.49670083523154 2 135.55543062496358 44.818686776687542 2 148.89628608969278 55.112185004219867 2 11.691499668772297 118.27674351495767 2 113.59764397879651 10.010888405793288 2 115.68220887497232 5.6151154427849193 2 130.87199710224235 21.530173303420064 2.5 150.62995955570904 60.468977668172727 2 16.520942580426716 119.4891216732296 2 106.4482075354087 16.704293217651919 2 32.270119349950043 166.14299227579565 2 191.75592489240529 173.9587308084779 2 178.57321292084842 167.56856136977842 2 </DataArray>
</Points>
<Cells>
<DataArray Name="connectivity" format="ascii" type="Int32">0</DataArray>
<DataArray Name="offsets" format="ascii" type="Int32">0</DataArray>
<DataArray Name="types" format="ascii" type="UInt8">1</DataArray>
</Cells>
<PointData>
<DataArray Name="Points" NumberOfComponents="3" format="ascii" type="Float32">0 0 0 34.70249454572869 4.2287537961714632 2.5 74.559531144736908 16.720039519392952 3.0 23.823643034489056 17.78503570796456 3.0 61.876174514236574 17.816353165310382 2.5 101.96217551175181 20.997427374204907 3.0 138.95504451903847 25.463847671982695 2.5 22.01825458643868 34.944482799303465 2.5 181.13420274247562 26.768718128648555 2.5 111.13133548398838 40.187453322945366 2.5 69.176348800154386 31.553368069634487 2.5 27.244798653795137 43.330421738967964 2.5 101.83996524859363 51.886421460196885 3.0 93.083170984023155 60.399275034648944 2.5 71.403655710697436 65.014163048819569 2.5 181.27494574642904 80.834032565440694 3.0 60.256498236124386 90.0541342778657 2.5 179.16347497664501 130.80219383002458 2.5 40.502329201705841 113.32153126390148 2.5 76.633466580262322 131.48536369432608 2.5 150.02507919065437 132.18382482983642 2.5 15.562927883852756 130.34994665364314 2.5 2.85 127.05155039988705 2.5 33.358276899269327 143.26969356210031 3.0 44.482692714551312 142.19788958851498 2.5 139.54721055936326 151.89897086083221 2.5 176.01639054684114 143.72070604910846 2.5 189.8591932057293 144.73285305937043 2.5 7.7871972602986306 163.89489001155161 2.5 117.94787491218933 155.15118792216745 2.5 42.56426392105891 168.25465654139921 2.5 51.262516842352845 158.09090844071068 2.5 91.818967659748139 158.04241088430575 2.5 192.84395950064351 177.27816689500764 2.5 181.16594007036628 171.42068137013035 2.5 24.289171327521263 182.07785417186417 2.5 25.134256382693241 7.7377906822725695 2 91.866184187687082 5.6331061864562031 2 14.975293771380946 12.818612230855903 2 63.241456085890007 23.388469112856399 2 103.34739923884146 25.834104463385362 2 60.90894402751195 40.114106673084748 2 22.018142133151912 45.943369190785532 2 26.83122219794738 57.42868595317281 2 101.09008831746709 57.52103821636657 2 92.067815833743808 48.527738559151508 2 134.86844433057439 114.54171745354472 2 43.197792438947559 129.18831622122002 2.5 63.155129065782297 131.20288315728004 2 141.53802372221577 132.45200902889479 2 38.510395185752621 145.21685896952275 2 188.14608524601309 134.69706656804038 2.5 47.803024754657294 147.03997133731838 2 171.30237468974246 139.95517018442379 2 192.25377355819481 150.23633999508746 2 19.04989346946973 162.8212344510444 2 163.47799107476314 144.7630519194993 2 27.798204443891386 164.32804256286306 2.5 125.64811485719592 154.42869454240821 2 37.632484528134796 150.52663847187679 2 49.38377715021614 152.92135172915968 2 100.59988989899344 160.33825992906372 2 196.95 164.80039309507265 2 23.837800645014163 188.34514648570351 2 80.49900910204606 15.847048113113388 2 101.38418901316729 16.26785039753954 2 110.22976794684793 31.320866096789622 2 13.615366652185937 38.738943956601354 2.5 16.090393411592636 59.351474513592912 2 73.070043194277332 58.597473477528617 2 69.363350701890383 70.256793415348781 2.5 176.56671312825671 76.770598544100736 2 138.51862419334114 71.972586751970638 2.5 133.44891698066033 73.01642418570556 2 189.37787506923428 81.668077970589096 2 68.058464983892932 102.93938343831653 2 71.745722511172431 134.13995059863905 2 10.745884637929962 128.69858223457987 2 137.92014615780514 146.12330109112838 2 175.61922378096489 152.43102338692196 2 174.44298175410827 158.03373771425183 2 138.51606523049065 158.83689335618868 2 88.049484633804411 171.84599833757116 2 181.84392244028967 176.09968063886703 2.5 108.48782129492449 173.09687832341106 2 92.835743333236152 12.507806993168135 2 20.05588055595754 10.894366764242578 2.5 186.7890124382661 26.585902584813947 2 65.589006404388172 44.636378054287732 2 139.52437535712107 48.29547619610441 2 14.11931246108205 51.804292328539596 2 98.770333168771558 63.218291588792461 2.5 103.51314783927567 67.34478437473804 2 181.80565047558557 69.330742655151042 2 145.98120990201232 65.711562743975989 2 176.48278486912659 86.067403558028261 2 67.247376664343847 97.245723599046471 2 7.9192520180467971 85.90107862310802 2.5 126.49363009334989 110.59043154857194 2 138.90517881113976 120.01845238230449 2.5 41.896725176367731 123.42912239207057 2 79.65156454018117 122.09403625898139 2 189.05874696011693 139.63410112236764 2 135.97481452026065 140.8960158999744 2 194.09206218436066 156.09899042796246 2 156.33141427810139 142.45852929851972 2 97.156152390017283 155.72303957648546 2 196.95 169.90019366448496 2 186.6021836817296 178.33388860443793 2 61.646025354661795 12.460676392203846 2 175.24079989043608 29.138890156925175 2 145.2192625145303 27.717379555029744 2 187.75174474693455 69.814227598711952 2 4.5623364155709369 120.95628640331965 2 18.332786897963487 124.34989083266562 2.5 13.223214440121156 165.55246750385894 2 37.296315942860687 167.43441096389077 2.5 18.483722305996849 190.52804714792777 2 75.877608998788887 54.012564218340891 2 172.55237717657346 90.509459920656042 2 64.952599462174007 90.291329293340198 2 80.287713517494197 106.37906254522575 2 165.75470736308515 139.34110474378986 2 87.352004268074211 13.934412436359331 2 7.924019644693594 16.134348877245976 2 29.30926233375526 18.410970331344526 2 110.34165317460608 13.734298912223414 2 37.452652258316817 39.880403924840358 2 10.073400219432681 34.269555781874217 2 191.26106381752885 76.111395549327412 2 174.31476010629544 165.45475575173413 2.5 23.765741139521833 161.84571129589398 2 6.3216687635134106 168.81987319582262 2 141.40973398171582 165.91228842187405 2 106.52734308259599 164.91565211658556 2 68.051549468926325 16.78338511553023 2 32.553044296856342 21.454961975161552 2 144.02337202203211 51.332213021688531 2 127.92523983686712 84.501765539248979 2 52.019600187109667 128.42923851378458 2 77.262679628963369 116.31433703690779 2 141.55358071193191 126.68558858805626 2 182.34814777171965 134.49670083523154 2 135.55543062496358 44.818686776687542 2 148.89628608969278 55.112185004219867 2 11.691499668772297 118.27674351495767 2 113.59764397879651 10.010888405793288 2 115.68220887497232 5.6151154427849193 2 130.87199710224235 21.530173303420064 2.5 150.62995955570904 60.468977668172727 2 16.520942580426716 119.4891216732296 2 106.4482075354087 16.704293217651919 2 32.270119349950043 166.14299227579565 2 191.75592489240529 173.9587308084779 2 178.57321292084842 167.56856136977842 2 </DataArray>
<DataArray Name="forces" NumberOfComponents="3" format="ascii" type="Float32">0 0 0 0.29508194314122049 0.19838792937749533 0.0 -0.14804184595282238 -0.099143138740981129 0.0 0.20099439709021993 0.13733624185975413 0.0 -0.12710171122833927 -0.01263578126595037 0.0 0.84902904466488804 -0.056008927773759765 0.0 0.28453593332055094 0.056797190308977022 0.0 -0.098584234168842738 0.30022661125904965 0.0 -0.11158827105666616 -0.063317930478954454 0.0 0.28697606530122544 0.35677036951580954 0.0 -0.14073633232542554 0.24588425916026596 0.0 0.085819970438333643 0.30643738232344947 0.0 0.095105206223597832 0.061983665111618458 0.0 0.37163438708924157 0.17917705675086104 0.0 -0.27551913359806113 -0.54147147728993572 0.0 -0.0012981572869357888 -0.099910474267197014 0.0 0.14371268704032863 -0.16303329979713788 0.0 -0.24923415534960724 0.013236121421595581 0.0 0.32094686414293228 -0.24008374302079288 0.0 -0.05670931694097836 -0.18263121443455937 0.0 0.19515623071724253 0.053497097867269916 0.0 -0.14926774910806473 -0.72489498223276272 0.0 -0.87027959006976574 -0.64439842984920337 0.0 0.06555075294860721 -0.23208337791663936 0.0 0.071657033373895063 -0.011174269173660739 0.0 -0.20700034784848287 0.17448166031688389 0.0 0.0083152288955297415 -0.26662040336914195 0.0 -0.18976367645311354 0.13903320808728956 0.0 -0.35761839550416175 0.56517964823255884 0.0 0.12170329392253099 -0.10619848946538729 0.0 0.19993994661980591 0.24262626885274341 0.0 -0.16897586428560807 0.05220707643558764 0.0 -0.25718133832060325 -0.17689673008332063 0.0 0.33073932697175845 -0.20046329319377151 0.0 -0.2448494813377563 0.11998559903757977 0.0 -0.25584708240186904 0.24036327788539347 0.0 0.27375183392816027 0.34951547725503557 0.0 -0.41998679628341634 0.77170818570871202 0.0 0.14594835124840616 0.38391261885802064 0.0 -0.16434416649455952 0.0017514416381506637 0.0 0.15395181452647533 -0.012299555123309824 0.0 0.21485104283614115 -0.12777725088877812 0.0 0.053678536385083242 0.3020265886620927 0.0 -0.33557427150405189 -0.00038634063608367075 0.0 -0.060662113833199777 -0.18690664877991753 0.0 0.22408223376497027 0.18417614025496831 0.0 0.035337051426136634 -0.13490289748757367 0.0 0.33634779088147604 -0.30308353042577485 0.0 -0.22541922885136279 -0.594927935511536 0.0 0.023386010368741328 0.045155927219759417 0.0 0.062202176652512708 0.11677440472102507 0.0 -0.06739646946196115 0.0021643211320849787 0.0 0.082375509163987726 0.095989599401584302 0.0 -0.063057402491052877 -0.33478706088461241 0.0 0.23993912651076399 -0.024172041977838205 0.0 0.022423060505445125 0.18784065003237482 0.0 0.20826921680682392 -0.066174549708030217 0.0 0.14915716392018286 0.25237603168401468 0.0 -0.25891002351244696 0.19690264668517121 0.0 0.13691118838671101 0.26389034528054101 0.0 -0.10724025612672561 0.057797015460028439 0.0 -0.21918896089941678 -0.15184511286168589 0.0 1.8402791780055905 -0.017615723258878058 0.0 -0.0054729901403903769 0.032120398833058283 0.0 -0.4115758691268665 -0.071545116553166976 0.0 -0.16646672447101407 -0.13365375682491687 0.0 -0.033455858270595079 -0.15621661502976775 0.0 -0.012504053217110097 0.0056716620396354261 0.0 0.26831508530913539 -0.24012085395713567 0.0 -0.0056522756429535637 -0.2611589853934963 0.0 0.26537026088681359 -0.15977042242228856 0.0 -0.16757007411051164 -0.11206176573965809 0.0 0.27408453364079954 0.17252391508884973 0.0 0.0078739046563447435 0.014995585200767436 0.0 0.10076456900362613 0.40548947092471122 0.0 0.17636194680762163 -0.013743300790650337 0.0 0.028076320190302373 -0.13808319546155723 0.0 -0.16748325403598507 -0.45415488866957737 0.0 -0.045958687926927616 0.12222517476874201 0.0 -0.25417047875808607 -0.040924636065954423 0.0 -0.076786874184153753 -0.11002069171284989 0.0 -0.35276065805310963 0.0078672541243929306 0.0 -0.098350805632137217 0.41265069211284128 0.0 0.0072307219553793267 -0.056375339021935506 0.0 -0.083628281012625816 0.21363555276763646 0.0 0.09222148232525787 -0.065734381308753698 0.0 -0.028968569880529302 0.030491212102890259 0.0 -0.33947114359719011 0.41868531461665315 0.0 0.074262239985532885 -0.086705552916836126 0.0 0.04230368170716263 -0.15900552850261801 0.0 0.23479140007578933 -0.17380409935712407 0.0 0.48558232696728998 -0.050221523284722569 0.0 0.27908686587294318 -0.095360049268162189 0.0 0.054698306223298521 0.098726376922105064 0.0 0.58092679227040833 0.20973191254573442 0.0 -0.68386433815787129 0.38849950380353326 0.0 -0.13176721570395669 0.11676711439073839 0.0 0.065862803493573985 0.012845214306928421 0.0 -0.031282478291838584 -0.39228194947235984 0.0 -0.01884998780520182 -0.42082225653052974 0.0 0.13648846132199999 -0.31744244724694692 0.0 -0.13578009509006483 -0.07485166246669156 0.0 -0.2459034969381011 -0.057278198026856159 0.0 0.36319278988485293 0.063911130143377681 0.0 -0.10784804191957123 -0.27632310824507844 0.0 -0.044456078301000401 -0.19619639128928684 0.0 -0.5296568549250753 0.065667763738813709 0.0 1.8670868566001393 -0.19127202193711096 0.0 0.075258021137912245 -0.032908110280811975 0.0 0.42293997068882061 0.075264685090070338 0.0 -0.44119397926988885 0.32422923926416281 0.0 0.012775887173922057 -0.059891630635842463 0.0 0.1714924755819624 0.17297329595355548 0.0 0.036369115467332458 0.67712149213696737 0.0 -0.11900168924446587 -0.27899632823093778 0.0 -0.086498822846096279 0.33238314424830256 0.0 0.32732337965622149 0.11652158032630477 0.0 -0.10702894093498497 0.00024774419090811911 0.0 0.14306046555124369 -0.045705426704159918 0.0 -0.20979977389261109 -0.031640433948341901 0.0 -0.12237869380134814 -0.080475538318825313 0.0 -0.0346550919021274 0.10733227352002454 0.0 -0.024632927316116993 -0.1210631481573366 0.0 0.038729942998855876 0.11761247034583451 0.0 -0.27963260152873382 0.27836292388272277 0.0 -0.02417263901293365 0.082217095320115119 0.0 0.27135472619157514 0.25864466838482386 0.0 -0.1770886281345137 0.41731084961064191 0.0 0.0 0.0 0.0 -0.065471113690889385 0.51031343005897056 0.0 -0.2316573592105452 0.54039216089428466 0.0 0.10269588760636389 0.10680918663573236 0.0 -0.20740491382061016 0.17579391341901676 0.0 -0.34003078948668997 0.38193135435031589 0.0 -0.22444030720514674 0.1303593712257618 0.0 -0.016429600947371038 0.052046948189508342 0.0 0.39330686870436382 -0.041483391491142774 0.0 0.19910667559892153 -0.16852266955992035 0.0 -0.034670038002688197 0.33648336889577884 0.0 -0.21982849201490001 0.13411343277176507 0.0 0.40520131256279823 0.19887501345493452 0.0 0.24043862186955944 0.071378975563022223 0.0 -0.20185870999887806 -0.01092967065996453 0.0 -0.17275686362870218 -0.15167830268474347 0.0 0.0 0.0 0.0 0.095601659790799043 -0.043663677200472012 0.0 0.094566337047141402 0.15129767958608947 0.0 -0.16527867736827009 0.23816339724196145 0.0 -0.19923640711615737 0.16139656595687663 0.0 -0.15733252960696875 0.2347679141366755 0.0 -0.05866575211124303 -0.20876748763661729 0.0 0.24971066456519342 0.42821262336538274 0.0 0.26800462266946112 0.29000414123021584 0.0 0.06051914168683542 -0.16184571776159001 0.0 -0.15455723359590429 -0.026221475995204524 0.0 </DataArray>
<DataArray Name="radii" format="ascii" type="Float32">0 3.0500000000000003 3.1500000000000004 3.1500000000000004 3.1500000000000004 3.0500000000000003 3.1500000000000004 3.1500000000000004 2.95 3.0500000000000003 3.0500000000000003 3.1500000000000004 2.95 3.2500000000000004 3.1500000000000004 3.4500000000000006 3.1500000000000004 2.75 2.75 3.0500000000000003 3.1500000000000004 3.2500000000000004 2.85 3.4500000000000006 3.5500000000000007 3.1500000000000004 3.1500000000000004 3.4500000000000006 3.1500000000000004 2.95 2.85 3.2500000000000004 3.0500000000000003 3.5500000000000007 3.0500000000000003 3.4500000000000006 3.3500000000000005 2.75 3.2500000000000004 3.1500000000000004 2.75 3.1500000000000004 3.1500000000000004 2.75 3.1500000000000004 2.85 3.0500000000000003 3.5500000000000007 3.0500000000000003 3.1500000000000004 3.0500000000000003 3.1500000000000004 3.5500000000000007 3.1500000000000004 3.4500000000000006 3.1500000000000004 3.1500000000000004 3.0500000000000003 3.1500000000000004 3.5500000000000007 3.0500000000000003 3.0500000000000003 3.0500000000000003 3.4500000000000006 2.75 3.0500000000000003 3.1500000000000004 2.75 3.1500000000000004 2.75 2.75 3.4500000000000006 3.0500000000000003 3.0500000000000003 2.75 3.1500000000000004 3.0500000000000003 3.1500000000000004 3.1500000000000004 3.4500000000000006 3.1500000000000004 2.85 3.0500000000000003 3.5500000000000007 2.75 3.0500000000000003 3.0500000000000003 2.95 2.85 2.75 3.0500000000000003 3.5500000000000007 3.1500000000000004 3.1500000000000004 2.75 2.95 3.1500000000000004 2.95 2.75 3.1500000000000004 3.0500000000000003 3.0500000000000003 2.85 3.1500000000000004 3.0500000000000003 3.1500000000000004 3.0500000000000003 3.0500000000000003 3.5500000000000007 2.75 2.75 2.85 3.1500000000000004 2.75 2.75 3.0500000000000003 3.0500000000000003 3.0500000000000003 2.75 2.75 2.75 3.0500000000000003 3.1500000000000004 3.0500000000000003 3.0500000000000003 3.0500000000000003 2.75 3.0500000000000003 2.75 2.75 3.0500000000000003 3.0500000000000003 2.75 2.75 2.75 3.1500000000000004 2.75 2.75 2.75 3.0500000000000003 2.85 3.1500000000000004 2.75 2.75 2.75 2.75 2.75 2.75 2.75 2.75 2.75 2.75 2.75 2.75 2.75 </DataArray>
</PointData>
<CellData/>
</Piece>
</UnstructuredGrid>
</VTKFile>
