<?xml version="1.0" ?>
<VTKFile byte_order="LittleEndian" type="UnstructuredGrid" version="0.1">
<UnstructuredGrid>
<Piece NumberOfCells="0" NumberOfPoints="428">
<Points>
<DataArray NumberOfComponents="3" format="ascii" type="Float32">7.7679041099595549 11.30390866517407 3.0 54.453698109718061 10.230056823537895 3.0 98.183450725399965 9.7024920241673875 3.0 159.74052215610894 11.066123427122472 3.0 187.5287370498086 4.4075204988011576 3.0 171.31323380034638 20.593595060451833 3.0 179.89485910570426 21.76321559276894 3.0 134.7495024490409 20.670955641026879 3.0 87.941469713612776 27.215044080986146 3.0 98.483956569322444 29.194155848590192 3.0 15.654159196480855 37.789977500251496 3.0 49.50991514953548 37.214945012655868 3.0 101.20091342436893 49.025342884949779 3.0 62.70564421704038 51.851594417083994 3.0 7.5488346702714653 54.949271486547019 3.0 40.231879085481978 57.850255660774202 3.0 128.88488517459177 62.854677814934654 3.0 66.219301950944725 67.669898030863337 3.0 49.956567393888108 71.53851639522091 3.0 33.609403352218422 72.160031630732789 3.0 22.404874311010321 74.329776371599451 3.0 182.80601544095001 75.163242283272041 3.0 7.9680813187488999 83.959138268106557 3.0 112.29370972898845 85.209110413873461 3.0 40.133310010745902 89.199868341728831 3.0 61.852865417902244 100.36504444717944 3.0 46.360320629408498 97.635197950121551 3.0 85.276896668581074 116.92223046591617 3.0 104.0636023702329 114.93678624753727 3.0 127.98979027020944 125.50642986325613 3.0 112.62218824594673 124.40417706630041 3.0 14.918528070717485 127.12260319543168 3.0 107.19124508172767 133.09344241566862 3.0 100.67000909986803 137.82270977857016 3.0 160.21169943590272 139.40481781063394 3.0 118.83694105159144 139.40989748005907 3.0 76.87206944218245 137.88831829215391 3.0 68.350631834147066 139.23727098084919 3.0 54.036253918083318 147.25820754110524 3.0 125.52902500669232 149.10680510832242 3.0 57.281752003982561 157.6068936404584 3.0 186.68644684444706 147.84275599837844 3.0 75.170592378471795 161.41784455250482 3.0 101.34561588593567 150.64889175228134 3.0 81.125645923123912 164.09913272754156 3.0 131.35382035314132 168.1602406518175 3.0 113.64552669576031 169.54728883538269 3.0 188.56182263475924 173.78294464691263 3.0 17.398846749167006 178.02072532760369 3.0 69.817161038532348 167.33036497789095 3.0 55.061324861248309 171.41305327288524 3.0 39.962133679219278 189.89618923086914 3.0 20.686659532247234 196.81245227360179 3.0 131.61987290593842 191.50587139307521 3.0 21.76479064027032 2.8041966305285393 2 55.118262084722978 2.8041966305285393 2 106.14684008671691 2.8041966305285393 2 161.25407625185198 3.3390948258538793 2 37.203990329497195 10.900331996912227 2 191.09315271731188 13.546646082986138 2 167.55714895821191 11.818471313869773 2 185.88970232245487 14.843196036367853 2 69.679455717689038 26.044343302427784 2 94.390853176599947 19.001165889365176 2 143.2476502017384 25.708057774483763 2 80.762520090649218 34.827330545987756 2 100.34497668437082 34.029206580668088 2 44.665671469666016 34.671885340550347 2 54.483360489703749 45.049484341950986 2 2.8041966305285393 57.85242152533587 2 35.308705913544884 54.29273495650105 2 135.87643978592865 55.174888039182399 2 68.005332162539275 55.267749951916834 2 138.94162285289187 65.730260508481706 2 50.650125992858435 58.496134129416241 2 39.96967139441827 81.705736443584698 2 21.500080452027156 68.933780538274078 2 191.36512188572618 78.191377617900429 2 2.8041966305285393 77.50071814703324 2 113.15226455448004 74.455490616083225 2 167.089956925509 84.547666219427811 2 54.570115111228688 89.951067822939251 2 62.923542862244233 94.780966126145373 2 41.260332726545236 104.88234255301478 2 97.973758447656905 122.4059046851538 2 121.84531878356724 113.36854088966615 2 113.17545566827144 119.0154077783022 2 135.97046775604463 130.2938290027632 2 9.7145167663939915 125.6978781494913 2 48.91152794106312 118.80864488092656 2 112.1019551138055 134.19673598848914 2 89.317131085560533 132.8072752122948 2 155.2406400372258 136.47895290456921 2 111.63930781333443 147.86312396516954 2 85.430375559357159 142.66375804727434 2 76.279009525126241 148.4332632171598 2 138.59559184200691 156.13668904943691 2 66.326306826171106 153.75724904403864 2 68.800604584172859 149.54292751107127 2 107.35987165204432 160.95715457945943 2 136.57768093074523 169.4227379027962 2 123.14314423821158 173.00831359859771 2 6.9765359658736799 173.80623097527513 2 39.498795408080483 177.79598107148658 2 73.862629569132437 182.03220714990934 2 52.466423058232863 185.6313620375746 2 35.979408537305851 186.54712657698238 2 132.08881972663983 197.19546369634429 2 45.876486558080877 7.6682632203263426 2 100.75386722867648 2.8041966305285393 2 166.65078848334591 2.9489143759181999 2 33.651543965070225 18.242830541335444 2 182.22596195354322 10.592988311482141 2 172.35863511308958 14.088044555799607 2 177.2952327938317 12.439994448560901 2 143.31423560541677 16.505764609646828 2 84.479801366947697 30.973466413901054 2 92.95954347742763 28.52062167840305 2 54.361635945881446 39.576232654686684 2 98.814978453952619 44.209329430017277 2 46.204574063653574 55.30773056911184 2 130.99512970471531 57.531647584036001 2 61.089066783233477 68.644055047906676 2 126.12396689767446 68.681382324530702 2 38.688736633030906 71.67215700750242 2 36.818393719910354 66.750937111675242 2 17.572361181355415 81.99885431740293 2 12.418721427458738 81.072884631363735 2 123.03609726057867 85.36976308862468 2 171.34466729386983 87.898339937230858 2 48.329727921059195 93.003570078175287 2 55.597930022692331 101.60657864527265 2 50.9123951159333 105.69375803186266 2 110.32196938353268 108.90640833550779 2 122.79556281148106 124.80167831997647 2 107.33850221237645 128.33802029401357 2 98.238605186323952 127.94943377403827 2 98.109373310946822 133.47613025990168 2 104.31120520278429 141.20247545248452 2 186.2462389749893 142.73421082234128 2 81.650968919304816 147.71616251841348 2 63.602218221510306 141.07867212794076 2 134.01754385584573 152.99397530267706 2 55.226015441696127 142.0304260841506 2 188.4631323715065 156.20201536686471 2 76.854095096984466 153.86501977050594 2 179.51179888583775 160.57277330566541 2 77.154883149970814 167.39341858563452 2 129.729993561995 163.11706127738108 2 117.94562462941882 159.8458650955931 2 23.380750731075604 175.94234274129192 2 191.3795693018902 169.93928763786869 2 6.8701065196232589 179.35264202147434 2 37.093923619921974 172.62720341547507 2 65.511315801252564 170.51720262598332 2 57.902962395895898 176.12317346080764 2 32.608987305154969 196.2068881270099 2 28.518486340245417 193.06068236148957 2 134.20296066684426 186.92315132310523 2 12.114541725012888 2.8041966305285393 2 2.8041966305285393 2.8041966305285393 2 60.245535914668537 4.3918169882294746 2 109.26093820354096 9.6942932068358658 2 150.5816475639777 2.8041966305285393 2 29.576977930289797 8.3458224498715623 2 190.99118876444203 18.855360895227726 2 167.70346367330794 16.999050711504658 2 183.42138851408396 25.587171376863733 2 85.794184271298562 19.856690896126139 2 148.70375778670788 25.978910928621229 2 90.976664102640797 38.189390161451094 2 96.106034923618566 38.470396081227904 2 44.899069931469732 40.192699396104615 2 109.61367161255197 44.79186859326574 2 58.073185426501546 54.348376346903073 2 2.8041966305285393 46.672975026729972 2 36.300895642072987 61.353272367758329 2 141.36345548574809 55.855062962653179 2 67.733647807983687 60.59003218782226 2 138.1402685651546 60.193133107637813 2 49.710158882836254 63.420481269886096 2 52.129803608876117 76.491085559061005 2 15.771740788614812 71.20001584299294 2 188.00834501987748 74.236923180712225 2 6.578993099051246 73.416371051126148 2 113.46127282697483 79.95003196132069 2 172.20430027921526 79.773130421345783 2 49.510979236162356 88.043814297756683 2 37.052380642629338 96.053463618285789 2 87.026526226079937 105.18127400326647 2 98.609749875665742 111.44453566223233 2 117.91957277608583 116.70531674695383 2 133.15721255880393 135.06264472972219 2 114.08906053343765 129.86393221898973 2 89.329397704607587 127.39426946585985 2 105.98291882396295 145.9434208871852 2 178.59958344182925 134.77268800821884 2 87.277025890478555 137.5336467880278 2 73.165282284832813 141.01352531741907 2 133.03111355536501 147.53762439262371 2 67.465209035035613 163.03213142039252 2 63.380044434902189 149.19620046854556 2 111.67884040215712 153.36632826998752 2 180.88972709654439 150.33928127934104 2 133.64962811160819 174.15808713998669 2 117.81965009690907 172.86961605337484 2 21.070490483612897 167.86437556711533 2 186.48089361884212 164.57790073430118 2 33.887924034768524 176.91092514293837 2 74.331509745678161 176.53917749190131 2 51.020590057653671 176.14652811933198 2 33.242472888642943 190.81631998300779 2 122.72267842752936 197.19580336947146 2 15.021471530708778 7.3657745766600486 2 8.2691327685952452 6.9678077571041976 2 49.326912487349624 11.957726476685108 2 103.15439709546256 7.379321188612681 2 155.35838458115489 8.0652558704108159 2 25.027374899812546 12.228382070612007 2 192.48900517897746 7.3075390423492594 2 168.3522899251646 25.03423413671505 2 175.22630243508161 23.99026465600739 2 75.794638626697534 23.244001161262769 2 137.80604767160281 16.175875903826466 2 83.227113335628204 24.961843811912175 2 94.936175500976915 33.361748501004755 2 13.573407620138116 33.121727947007997 2 50.615558408782071 31.853273749243943 2 106.63826056778946 49.367918377827671 2 67.592234374629442 49.933293324029208 2 40.617922473883063 52.508246309599819 2 123.60173810157475 63.698349674084007 2 62.844671654299333 63.139133855590288 2 131.52648427769697 67.981283340364968 2 43.779343486644898 71.411924312130779 2 29.060810017351649 69.413378990798691 2 27.547920749556816 76.06789044941101 2 7.7636853772062491 78.713567525702757 2 117.64998013954043 83.896269815459931 2 44.466874780766616 86.059196724924348 2 58.054692066925448 96.815117874500274 2 46.15934674106029 102.93240915172039 2 82.608588761953271 112.13914022590629 2 109.4600806451402 114.1194114123743 2 130.32726292320331 130.33102222731426 2 117.68801452207421 126.61827027314017 2 133.98649168143129 120.55756639681735 2 13.482678088968683 121.9573231281647 2 102.6450669564522 131.13425485488403 2 96.762088002361395 141.53194186469727 2 162.75726254696966 134.51397589764716 2 113.60625395774746 138.90119396472639 2 183.1762351048294 138.27379161269536 2 54.163859769425272 153.19333062018777 2 128.43167080671392 144.56052162752729 2 61.308604422291147 154.49613350060449 2 185.77372753384543 152.27963390324436 2 70.532479659006583 158.77887482863142 2 100.61760221597558 145.29974207226749 2 79.927732427777045 158.7786134218855 2 126.00887031888111 167.62309869551686 2 110.81600394120201 165.03827857388069 2 13.307395231554244 174.38568140988733 2 30.444699081750805 168.36238805489808 2 73.360806567338869 171.00134320492973 2 60.186518448603863 169.69695258035676 2 42.240299505429782 194.71651791521214 2 127.81751896203011 187.26827209180013 2 16.992449983313449 2.8041966305285393 2 2.8041966305285393 12.478542141327063 2 50.999754913721112 6.0535276032999645 2 111.25723250263331 4.5655404171651464 2 156.00216164442571 2.8041966305285393 2 196.35670690809076 12.673539875483199 2 164.11322566248168 7.9151914294647083 2 184.9033705768141 20.149718015917195 2 91.077378184187566 23.218501837012699 2 85.725493028756262 37.19699528516567 2 105.47692646847773 36.114500257118877 2 58.238930460595839 48.803883901287826 2 2.8041966305285393 52.251054652755542 2 31.652132259721064 58.470263609447713 2 135.90327975632698 49.715035789339879 2 73.284537192150111 54.001552259539629 2 143.4570439509865 62.772594338780898 2 55.847392867160352 60.411942978481243 2 45.390567799499813 80.786741701801574 2 16.856003172975971 65.828453072128355 2 186.27215889267961 78.930262538410304 2 2.8041966305285393 83.099753791778184 2 112.92961881068682 68.924240328148827 2 164.7650448153253 79.578693873358418 2 53.134028434804847 95.24884649966566 2 35.860294436497007 104.40494722846057 2 77.40229461818943 112.93662954226021 2 102.94967030982414 120.25843182100763 2 127.08150775291855 114.82477712338091 2 107.92862544630931 118.76407187580382 2 133.33558564309621 125.68630024695577 2 7.7411135132020688 120.73226054664285 2 43.632972632552011 119.97788217271939 2 108.14798787697138 137.80698503301409 2 93.840689568112325 130.35651345079478 2 115.5304128087792 143.93129690872468 2 81.98832252638374 138.27925758963724 2 71.886822201121774 145.72569133605418 2 64.889797431247061 158.57784780824764 2 66.635615087521614 144.93753639953218 2 112.63485959837398 159.71472954311079 2 82.570989489588058 169.35692101991452 2 135.17110933368843 164.01943316419766 2 120.63364178041054 168.05847345433432 2 15.853688319182069 168.31518617577564 2 190.51246110341114 160.47563392606654 2 10.50406392942995 169.56123568436107 2 35.655855516982491 181.63722590239138 2 68.754321609943716 179.7508770563102 2 47.525608549471308 183.00700348329988 2 41.151385691605242 184.50615633194928 2 137.30881626229109 195.28482768433597 2 43.555030510215133 2.8041966305285393 2 95.5665433027972 2.8041966305285393 2 170.26002669998499 7.0922420135182289 2 187.47081337444257 9.6556912939457167 2 175.93039134998668 18.175181966554003 2 180.91052145398513 16.466205605571947 2 140.24011847960497 21.325899670975872 2 89.532908175490789 32.933923667687161 2 96.345193641700902 24.431196625636851 2 49.432332153044385 43.208357555297198 2 101.03208760764764 39.232354327133208 2 63.157979732782024 46.271241255906325 2 10.618456998837702 60.276135819369706 2 44.812259655400709 60.68260684111096 2 125.59838904629503 58.469821006622354 2 56.395216595126151 65.894587567395263 2 41.211309013818656 76.380524693038964 2 41.946292453203206 65.322743272757663 2 22.765163134053108 80.396633987136354 2 12.050669613760659 75.325605403407337 2 123.58614329275281 79.791391948141566 2 175.28045457647994 84.018785644975864 2 42.840405897846061 93.766816993614327 2 58.265996542341639 106.19904133824562 2 50.722292719513931 100.11652514202497 2 87.007320837279735 122.46872075138866 2 114.57542565936276 112.58111545268881 2 123.20966474529335 119.09377558673839 2 107.4173301109445 123.51857476378177 2 48.958651233417974 134.53808657909875 2 102.59991280445173 125.56086530270652 2 93.677545758766797 136.30536020519222 2 110.05137203612746 142.70904018534773 2 182.08080127255406 145.35571041650846 2 78.311356389242377 143.20810753837981 2 59.200172735673291 138.72167059677167 2 59.776873713390216 145.00349691100104 2 71.641076552947837 153.76698149767154 2 184.83707098855476 160.01071827873145 2 78.434776929735463 172.90806607295937 2 131.27646791893838 157.7964218646309 2 116.29487352904836 164.89422599652863 2 25.501555062238694 170.75126494343186 2 191.61297744773162 165.14992100049787 2 12.359922825855941 179.90338819723712 2 42.568001730303216 173.17949783350943 2 64.189988671503812 176.15312789309905 2 54.500060196139493 180.49194714767634 2 185.93081513753688 169.54910036183546 2 37.597783033392268 197.19580336947146 2 25.725858319070529 197.19580336947146 2 139.39768246098231 185.18443577054015 2 7.3642326591811047 2.8041966305285393 2 2.8041966305285393 7.4524064569815032 2 59.790340686564008 9.6994045190878193 2 104.58925392642377 12.341050347983018 2 149.878895131543 8.2370450610819592 2 32.064988522815945 13.031389547126791 2 195.97304691699367 20.997757912249849 2 164.29971684045975 21.152338168508589 2 188.70561181670089 23.698618478768054 2 74.669026655506656 28.530338429753964 2 80.485077820292346 20.344486649468841 2 145.99591248087521 21.237627716095112 2 87.729713566739079 42.592014246461567 2 93.375288459939952 43.2233810150599 2 43.071234849262602 45.431331743332017 2 104.72270468849777 42.686542650487866 2 52.725224887418236 53.677062531006456 2 7.6711512602801264 49.426868488589953 2 31.848599112891378 64.637308176797688 2 146.38095294997061 58.179115202660739 2 134.04783046237986 63.386507680542344 2 46.837895502626381 67.386299637727959 2 46.701264305542594 75.755743404853817 2 17.454103614711965 76.454932258069888 2 2.976971880160995 69.263445999430218 2 118.58141574861719 78.203715606519722 2 168.63394081600876 75.701455365937292 2 50.456164509247365 82.844220450059879 2 41.449092404001604 99.3182416571602 2 87.947222906787232 110.70436177776034 2 98.817588484425954 116.89252899236456 2 128.58061066851567 120.14259854617002 2 118.32984555604635 121.67866924337892 2 6.3104644379057522 129.14958498011262 2 47.238145347150244 124.508316328321 2 118.53146268143374 133.69009862172416 2 92.568501169774379 122.94240687217253 2 157.27897614330095 131.30165731451282 2 106.85953223687125 150.73362308666242 2 178.15378528484192 140.35680220666907 2 91.31433877154285 141.2255092434896 2 50.132378146295025 142.59070242056342 2 61.961795600759018 163.14243105880647 2 58.322476187009201 150.2150348110672 2 106.36098555481649 155.79662845612987 2 182.01709006051561 155.75081456542986 2 85.200600313070325 160.72211094403181 2 128.42544141538053 172.69274984073971 2 112.68037635531618 174.87251390274361 2 18.707530362373763 172.90307248482733 2 181.3114471999493 166.43324562559349 2 29.919151617955006 173.6144588192887 2 69.321817437407958 174.3368591244809 2 45.689345426870851 177.75578113945068 2 30.12090425073437 186.29378937813465 2 127.28729755121367 194.39599301068495 2 </DataArray>
</Points>
<Cells>
<DataArray Name="connectivity" format="ascii" type="Int32">0</DataArray>
<DataArray Name="offsets" format="ascii" type="Int32">0</DataArray>
<DataArray Name="types" format="ascii" type="UInt8">1</DataArray>
</Cells>
<PointData>