<?xml version="1.0" ?>
<VTKFile byte_order="LittleEndian" type="UnstructuredGrid" version="0.1">
<UnstructuredGrid>
<Piece NumberOfCells="0" NumberOfPoints="723">
<Points>
<DataArray NumberOfComponents="3" format="ascii" type="Float32">86.939675176565913 9.150803801788653 3.0 128.63540206297102 9.3653116193159214 3.0 2.993819394521898 23.930582644511965 3.0 197.21556755420215 37.814068645188229 3.0 149.58840920523593 34.394960845553918 3.0 50.812749014277841 47.430063749017137 3.0 11.974476759447892 43.813374664746661 3.0 155.7923710757984 39.575326914793266 3.0 197.21556755420215 55.431575843956345 3.0 19.824720277577512 51.625050579490882 3.0 79.801919369968616 63.848469242028344 3.0 181.88651839619862 60.933598526369423 3.0 101.43006058921382 72.99168782015974 3.0 142.03066270179707 78.772559011691271 3.0 135.67731548215622 80.515076676095518 3.0 70.519758023066274 81.105058648323919 3.0 87.69802878867759 83.569892274045529 3.0 184.81669656117765 84.506645410143122 3.0 7.0385395027184883 98.065172045566825 3.0 178.46515733240395 106.25057332777013 3.0 74.650323089194458 103.32044097513855 3.0 134.74660640662225 98.461911948171121 3.0 163.05886231580672 110.26132460514053 3.0 2.7844324457978455 113.28225877653854 3.0 184.58579702954347 113.62350287108312 3.0 141.32416942299599 114.88143787923239 3.0 68.067052588445179 124.43678784682457 3.0 23.906928251256439 123.22107788975585 3.0 197.21556755420215 136.01330096264044 3.0 10.374944347965029 148.67424543205311 3.0 18.794797320672672 158.99847501698261 3.0 167.05208522225709 148.90586050193522 3.0 32.42375063079384 156.46825569229949 3.0 161.19382397968317 161.56348478649409 3.0 145.47337019241075 164.68960999739846 3.0 165.69808372747809 166.4248698144107 3.0 96.008126174659353 166.6199266291388 3.0 102.35975829310553 169.00031156196329 3.0 146.11145306067667 179.1496110709009 3.0 184.33934321105758 183.20075240275938 3.0 193.59379394382756 193.78172680308211 3.0 92.580887795238695 197.21556755420215 3.0 188.07929958677713 194.18694944292125 3.0 118.23734944507235 12.879572421076769 2 74.864939385658644 7.3946738243392138 2 12.622479254682077 26.748711245496153 2 135.34119610733157 39.695071008913743 2 24.410703219496572 28.060922525521811 2 180.7713374707055 34.12466452302062 2 193.48279980260313 30.447708975636662 2 140.01269922562366 39.35454510157404 2 31.426665708821382 34.559772131852441 2 164.44453617790921 54.641991868770468 2 186.32189251315788 54.828292334474696 2 81.031081255594458 53.488502181435621 2 197.21556755420215 67.846720283592191 2 77.966126236873649 70.437737640689292 2 105.34730889507532 75.160611123225323 2 173.40088059304955 60.877492662146025 2 151.75417645575382 68.298355372315086 2 139.94987247925522 88.559850080617593 2 75.744764235647608 91.083915663333642 2 96.719026615014329 80.692625420444159 2 171.06781384790634 96.095332791274345 2 67.731451180928389 87.691941388301146 2 190.32099059838302 90.698064218617944 2 2.7844324457978455 91.342193150659398 2 196.39032068073033 106.54436817054761 2 151.96202644596841 106.02183987759865 2 10.816279293900983 108.55951464216801 2 192.68871061677436 120.38327478018675 2 174.581409842417 115.57790502324373 2 72.316288248950059 116.4619673049193 2 27.891906852334952 130.6243400400291 2 22.331181631248771 137.49372348563398 2 2.7844324457978455 145.48443729210246 2 15.979838970492585 134.03776620671189 2 141.65126498099289 137.94391676910723 2 156.27759681105516 146.64600078626364 2 9.1877789109126997 152.04651273729328 2 151.61836745974833 154.74640405563483 2 156.78112526540309 171.45672944596518 2 92.063577193124587 176.64014397483058 2 174.46619010716526 179.54650615394252 2 105.35144305113302 176.12387912240735 2 151.00046867247525 187.70120154313076 2 190.9257028767189 180.22750792362771 2 197.21556755420215 188.03829565761822 2 87.708481523258783 188.49132584975399 2 9.6119972943851497 189.12955467451494 2 170.36360683378112 197.21556755420215 2 30.496651683859238 2.6290979429048793 2 122.97429445549665 2.7844324457978455 2 77.588947657044017 11.583126672292739 2 28.453407358341479 22.82162966554252 2 55.811656949823181 16.791993558405181 2 124.70558661846471 29.379987668787908 2 20.201884353749485 30.687143981021492 2 170.47031114490474 36.986793242419679 2 185.87972290513267 32.572421731158371 2 70.680431743693688 36.801043586455222 2 145.93994229459128 43.567315373256271 2 31.742104997294799 40.084310256149664 2 154.61283733559713 51.895736442442356 2 193.1659534078469 47.083531439051001 2 106.88092690324611 57.757934724830633 2 89.915812067093398 56.164940821062615 2 193.05760709367644 67.34668222439366 2 92.56411818540272 72.02933209094013 2 74.977310671585585 81.922563236040659 2 80.371540466936736 92.312987437506976 2 180.56754404844904 93.477361010597875 2 14.48975186772382 92.49910770989635 2 173.80140241890101 100.58637057772344 2 138.86903241838641 101.35088957159718 2 168.64258988399158 108.23885641605554 2 7.3696676796644507 116.6541218156824 2 193.10735900951875 112.02758879014479 2 145.15738363343021 112.23812289411168 2 191.99227168281831 125.8261302893398 2 25.825966664222655 119.16166708008517 2 81.276533462490761 129.53968138759959 2 32.942093064113763 126.3342838128216 2 24.424225003328001 134.21689410511189 2 29.738649050563314 146.68037130898972 2 197.21556755420215 139.37709198553898 2 11.415452147964373 144.5485168331721 2 197.21556755420215 147.64497452648777 2 25.578529793927508 150.34198383528221 2 26.264885935443601 158.28563051627927 2 169.86200843927148 159.29644700241866 2 2.7844324457978455 162.41405813479076 2 121.61717710048282 158.33366480788155 2 45.444980722483329 156.30107119873747 2 51.10481952091606 165.59597832477729 2 161.95828261985741 165.42837133506924 2 151.87747916094773 179.18202492646083 2 29.551257995685653 181.00337616624333 2 175.45127464929229 186.11977692047608 2 190.57880288124173 192.73756797699181 2 85.42570523927111 192.78809994329555 2 8.1226432447389794 193.6550723442605 2 176.60643598090533 192.5594408660435 2 115.05059122009881 16.245626413343601 2 66.750081489091556 11.242291387203139 2 12.49948644209722 21.969468664074121 2 115.69541047523012 21.177106731297027 2 136.64242147768005 29.758506185649413 2 39.650643101687983 23.385744804071436 2 177.67344871801188 38.059868680016578 2 120.0627667349565 30.482337865513944 2 160.05174935804436 42.383392068665017 2 184.40005678338511 46.381140172294714 2 96.876129740769002 51.552504411617413 2 86.574291787098545 67.771469439843258 2 195.70183411833233 59.056924992363527 2 90.035374419847514 75.359630621019463 2 131.62936547863171 82.524726098231909 2 82.148440453770178 101.67296539061302 2 90.574942667789244 96.573213549089061 2 188.85312457365046 99.349373532971043 2 197.21556755420215 95.539515195065519 2 71.014358568465454 112.18629803027314 2 160.47406957498012 103.24196839888643 2 6.5144325287660703 107.16452177921578 2 187.73976676817927 118.09977660770835 2 173.30503448309983 123.5488946476455 2 34.142166168913462 138.06535079964323 2 146.4709400472604 129.31693172388347 2 19.045153547423176 145.03796239509421 2 2.7844324457978455 134.47435702776588 2 37.936202465531466 136.04505880676703 2 13.512288097065309 139.81445879954882 2 16.899076516396363 152.04918052532912 2 163.00887172187933 149.9607685800722 2 36.543361843083957 159.01915208701391 2 2.7844324457978455 157.00882629699689 2 125.64693181561724 159.29784803663236 2 43.094045310310605 160.31157421303283 2 44.987670150587014 151.59409379144111 2 142.50536035333769 156.57078892318128 2 163.53331319935518 176.88135964269139 2 95.8030768618504 184.06827807390323 2 172.66286268193326 174.7939861332334 2 106.56268771194965 185.39147182927744 2 160.84831677637425 181.01033844795833 2 197.21556755420215 184.46528237134072 2 78.457404677349018 187.463911190701 2 174.70739119273179 197.21556755420215 2 39.296307333007327 2.604196630528539 2 80.164661174407144 6.9979004442529309 2 132.25448513536938 5.4007794263177233 2 8.5800995705747134 28.429565978500008 2 19.527272045508674 15.950903166103192 2 129.35330595650731 27.936163563661047 2 191.7249091533657 38.930470727489649 2 16.699565751663368 44.31198490776378 2 150.62531804600863 48.510559912213125 2 197.21556755420215 47.953936070608549 2 21.518697435854151 56.771518254745878 2 82.785687018183353 72.301938506168739 2 147.21734902701232 76.803775655702253 2 130.27672824689296 77.585976457319873 2 75.402148169966537 77.553741078985198 2 83.05073405849123 85.776138754631504 2 192.87895543986383 86.725545959849327 2 16.714440895626783 101.68802538872049 2 187.18560413767011 103.35928680203537 2 73.408163942286066 98.960487096730432 2 129.48962641050579 101.62876157548423 2 158.30495569559741 111.14442854467353 2 180.78617549689028 110.29595199772899 2 142.45390698427207 109.09815977132371 2 183.59886747503893 124.94712266418196 2 29.307853520427003 115.27069640953782 2 67.239995904196959 128.7701934963662 2 71.812875987201323 128.31445411786405 2 146.17832571684394 135.09100634669838 2 7.4674553716393834 132.4814192999371 2 194.60248935121669 127.5438906720253 2 6.3044513075400195 149.75637359567938 2 146.4746718683252 147.91113742759376 2 24.922545340772217 154.23569351478557 2 170.02403845562208 154.18523356837306 2 154.45635020413374 158.24172910343594 2 147.48701244020731 169.03302361075086 2 89.10430227203355 153.42130633663865 2 169.74383193273658 167.23075939198722 2 97.491994107265043 170.64813998971042 2 181.86980998833127 180.97195633427523 2 197.21556755420215 197.21556755420215 2 95.326096997453362 192.85517816145619 2 190.82264360643833 197.21556755420215 2 89.825479230607201 2.5844324457978454 2 127.75729683506397 14.456513270876366 2 76.294523459612861 2.7844324457978455 2 16.325815924501281 19.38832959990431 2 111.95019339541737 25.780421968119352 2 130.63300851682953 40.810405744606406 2 32.426034954645601 29.588085757483775 2 187.08822303802512 37.736932343743348 2 121.86841099889791 40.132612455839606 2 142.08313578160855 35.229640678649368 2 160.125856
[...]
<PointData>
<DataArray Name="Points" NumberOfComponents="3" format="ascii" type="Float32">86.939675176565913 9.150803801788653 3.0 128.63540206297102 9.3653116193159214 3.0 2.993819394521898 23.930582644511965 3.0 197.21556755420215 37.814068645188229 3.0 149.58840920523593 34.394960845553918 3.0 50.812749014277841 47.430063749017137 3.0 11.974476759447892 43.813374664746661 3.0 155.7923710757984 39.575326914793266 3.0 197.21556755420215 55.431575843956345 3.0 19.824720277577512 51.625050579490882 3.0 79.801919369968616 63.848469242028344 3.0 181.88651839619862 60.933598526369423 3.0 101.43006058921382 72.99168782015974 3.0 142.03066270179707 78.772559011691271 3.0 135.67731548215622 80.515076676095518 3.0 70.519758023066274 81.105058648323919 3.0 87.69802878867759 83.569892274045529 3.0 184.81669656117765 84.506645410143122 3.0 7.0385395027184883 98.065172045566825 3.0 178.46515733240395 106.25057332777013 3.0 74.650323089194458 103.32044097513855 3.0 134.74660640662225 98.461911948171121 3.0 163.05886231580672 110.26132460514053 3.0 2.7844324457978455 113.28225877653854 3.0 184.58579702954347 113.62350287108312 3.0 141.32416942299599 114.88143787923239 3.0 68.067052588445179 124.43678784682457 3.0 23.906928251256439 123.22107788975585 3.0 197.21556755420215 136.01330096264044 3.0 10.374944347965029 148.67424543205311 3.0 18.794797320672672 158.99847501698261 3.0 167.05208522225709 148.90586050193522 3.0 32.42375063079384 156.46825569229949 3.0 161.19382397968317 161.56348478649409 3.0 145.47337019241075 164.68960999739846 3.0 165.69808372747809 166.4248698144107 3.0 96.008126174659353 166.6199266291388 3.0 102.35975829310553 169.00031156196329 3.0 146.11145306067667 179.1496110709009 3.0 184.33934321105758 183.20075240275938 3.0 193.59379394382756 193.78172680308211 3.0 92.580887795238695 197.21556755420215 3.0 188.07929958677713 194.18694944292125 3.0 118.23734944507235 12.879572421076769 2 74.864939385658644 7.3946738243392138 2 12.622479254682077 26.748711245496153 2 135.34119610733157 39.695071008913743 2 24.410703219496572 28.060922525521811 2 180.7713374707055 34.12466452302062 2 193.48279980260313 30.447708975636662 2 140.01269922562366 39.35454510157404 2 31.426665708821382 34.559772131852441 2 164.44453617790921 54.641991868770468 2 186.32189251315788 54.828292334474696 2 81.031081255594458 53.488502181435621 2 197.21556755420215 67.846720283592191 2 77.966126236873649 70.437737640689292 2 105.34730889507532 75.160611123225323 2 173.40088059304955 60.877492662146025 2 151.75417645575382 68.298355372315086 2 139.94987247925522 88.559850080617593 2 75.744764235647608 91.083915663333642 2 96.719026615014329 80.692625420444159 2 171.06781384790634 96.095332791274345 2 67.731451180928389 87.691941388301146 2 190.32099059838302 90.698064218617944 2 2.7844324457978455 91.342193150659398 2 196.39032068073033 106.54436817054761 2 151.96202644596841 106.02183987759865 2 10.816279293900983 108.55951464216801 2 192.68871061677436 120.38327478018675 2 174.581409842417 115.57790502324373 2 72.316288248950059 116.4619673049193 2 27.891906852334952 130.6243400400291 2 22.331181631248771 137.49372348563398 2 2.7844324457978455 145.48443729210246 2 15.979838970492585 134.03776620671189 2 141.65126498099289 137.94391676910723 2 156.27759681105516 146.64600078626364 2 9.1877789109126997 152.04651273729328 2 151.61836745974833 154.74640405563483 2 156.78112526540309 171.45672944596518 2 92.063577193124587 176.64014397483058 2 174.46619010716526 179.54650615394252 2 105.35144305113302 176.12387912240735 2 151.00046867247525 187.70120154313076 2 190.9257028767189 180.22750792362771 2 197.21556755420215 188.03829565761822 2 87.708481523258783 188.49132584975399 2 9.6119972943851497 189.12955467451494 2 170.36360683378112 197.21556755420215 2 30.496651683859238 2.6290979429048793 2 122.97429445549665 2.7844324457978455 2 77.588947657044017 11.583126672292739 2 28.453407358341479 22.82162966554252 2 55.811656949823181 16.791993558405181 2 124.70558661846471 29.379987668787908 2 20.201884353749485 30.687143981021492 2 170.47031114490474 36.986793242419679 2 185.87972290513267 32.572421731158371 2 70.680431743693688 36.801043586455222 2 145.93994229459128 43.567315373256271 2 31.742104997294799 40.084310256149664 2 154.61283733559713 51.895736442442356 2 193.1659534078469 47.083531439051001 2 106.88092690324611 57.757934724830633 2 89.915812067093398 56.164940821062615 2 193.05760709367644 67.34668222439366 2 92.56411818540272 72.02933209094013 2 74.977310671585585 81.922563236040659 2 80.371540466936736 92.312987437506976 2 180.56754404844904 93.477361010597875 2 14.48975186772382 92.49910770989635 2 173.80140241890101 100.58637057772344 2 138.86903241838641 101.35088957159718 2 168.64258988399158 108.23885641605554 2 7.3696676796644507 116.6541218156824 2 193.10735900951875 112.02758879014479 2 145.15738363343021 112.23812289411168 2 191.99227168281831 125.8261302893398 2 25.825966664222655 119.16166708008517 2 81.276533462490761 129.53968138759959 2 32.942093064113763 126.3342838128216 2 24.424225003328001 134.21689410511189 2 29.738649050563314 146.68037130898972 2 197.21556755420215 139.37709198553898 2 11.415452147964373 144.5485168331721 2 197.21556755420215 147.64497452648777 2 25.578529793927508 150.34198383528221 2 26.264885935443601 158.28563051627927 2 169.86200843927148 159.29644700241866 2 2.7844324457978455 162.41405813479076 2 121.61717710048282 158.33366480788155 2 45.444980722483329 156.30107119873747 2 51.10481952091606 165.59597832477729 2 161.95828261985741 165.42837133506924 2 151.87747916094773 179.18202492646083 2 29.551257995685653 181.00337616624333 2 175.45127464929229 186.11977692047608 2 190.57880288124173 192.73756797699181 2 85.42570523927111 192.78809994329555 2 8.1226432447389794 193.6550723442605 2 176.60643598090533 192.5594408660435 2 115.05059122009881 16.245626413343601 2 66.750081489091556 11.242291387203139 2 12.49948644209722 21.969468664074121 2 115.69541047523012 21.177106731297027 2 136.64242147768005 29.758506185649413 2 39.650643101687983 23.385744804071436 2 177.67344871801188 38.059868680016578 2 120.0627667349565 30.482337865513944 2 160.05174935804436 42.383392068665017 2 184.40005678338511 46.381140172294714 2 96.876129740769002 51.552504411617413 2 86.574291787098545 67.771469439843258 2 195.70183411833233 59.056924992363527 2 90.035374419847514 75.359630621019463 2 131.62936547863171 82.524726098231909 2 82.148440453770178 101.67296539061302 2 90.574942667789244 96.573213549089061 2 188.85312457365046 99.349373532971043 2 197.21556755420215 95.539515195065519 2 71.014358568465454 112.18629803027314 2 160.47406957498012 103.24196839888643 2 6.5144325287660703 107.16452177921578 2 187.73976676817927 118.09977660770835 2 173.30503448309983 123.5488946476455 2 34.142166168913462 138.06535079964323 2 146.4709400472604 129.31693172388347 2 19.045153547423176 145.03796239509421 2 2.7844324457978455 134.47435702776588 2 37.936202465531466 136.04505880676703 2 13.512288097065309 139.81445879954882 2 16.899076516396363 152.04918052532912 2 163.00887172187933 149.9607685800722 2 36.543361843083957 159.01915208701391 2 2.7844324457978455 157.00882629699689 2 125.64693181561724 159.29784803663236 2 43.094045310310605 160.31157421303283 2 44.987670150587014 151.59409379144111 2 142.50536035333769 156.57078892318128 2 163.53331319935518 176.88135964269139 2 95.8030768618504 184.06827807390323 2 172.66286268193326 174.7939861332334 2 106.56268771194965 185.39147182927744 2 160.84831677637425 181.01033844795833 2 197.21556755420215 184.46528237134072 2 78.457404677349018 187.463911190701 2 174.70739119273179 197.21556755420215 2 39.296307333007327 2.604196630528539 2 80.164661174407144 6.9979004442529309 2 132.25448513536938 5.4007794263177233 2 8.5800995705747134 28.429565978500008 2 19.527272045508674 15.950903166103192 2 129.35330595650731 27.936163563661047 2 191.7249091533657 38.930470727489649 2 16.699565751663368 44.31198490776378 2 150.62531804600863 48.510559912213125 2 197.21556755420215 47.953936070608549 2 21.518697435854151 56.771518254745878 2 82.785687018183353 72.301938506168739 2 147.21734902701232 76.803775655702253 2 130.27672824689296 77.585976457319873 2 75.402148169966537 77.553741078985198 2 83.05073405849123 85.776138754631504 2 192.87895543986383 86.725545959849327 2 16.714440895626783 101.68802538872049 2 187.18560413767011 103.35928680203537 2 73.408163942286066 98.960487096730432 2 129.48962641050579 101.62876157548423 2 158.30495569559741 111.14442854467353 2 180.78617549689028 110.29595199772899 2 142.45390698427207 109.09815977132371 2 183.59886747503893 124.94712266418196 2 29.307853520427003 115.27069640953782 2 67.239995904196959 128.7701934963662 2 71.812875987201323 128.31445411786405 2 146.17832571684394 135.09100634669838 2 7.4674553716393834 132.4814192999371 2 194.60248935121669 127.5438906720253 2 6.3044513075400195 149.75637359567938 2 146.4746718683252 147.91113742759376 2 24.922545340772217 154.23569351478557 2 170.02403845562208 154.18523356837306 2 154.45635020413374 158.24172910343594 2 147.48701244020731 169.03302361075086 2 89.10430227203355 153.42130633663865 2 169.74383193273658 167.23075939198722 2 97.491994107265043 170.64813998971042 2 181.86980998833127 180.97195633427523 2 197.21556755420215 197.21556755420215 2 95.326096997453362 192.85517816145619 2 190.82264360643833 197.21556755420215 2 89.825479230607201 2.5844324457978454 2 127.75729683506397 14.456513270876366 2 76.294523459612861 2.7844324457978455 2 16.325815924501281 19.38832959990431 2 111.95019339541737 25.780421968119352 2 130.63300851682953 40.810405744606406 2 32.426034954645601 29.588085757483775 2 187.08822303802512 37.736932343743348 2 121.86841099889791 40.132612455839606 2 142.08313578160855 35.229640678649368 2 160.12585630419298 51.653577070680598 2 181.11015501143947 52.619527077029346 2 25.354749450104048 51.774620529631484 2 86.080147549116973 51.760785084177705 2 197.21556755420215 63.192269102845472 2 73.900805277168104 68.937716777404091 2 170.49727784626805 66.082129113979676 2 156.23813298004754 76.07926528624489 2 131.05131410599699 88.472726377920083 2 72.250799690972656 95.003816579306431 2 91.193727079083345 86.525783369370103 2 197.21556755420215 89.096601638166092 2 2.7844324457978455 100.09756176824685 2 192.45087985498336 107.98311053282403 2 134.39825985597182 108.75557793905448 2 153.42221566420716 111.667248743915 2 12.851613305647861 104.62479805169309 2 197.21556755420215 114.74390442683119 2 147.41913047162265 124.41152524375744 2 178.22501527371412 124.89526812146617 2 59.436286597137133 125.6561599475481 2 72.942527407523102 124.17362865742108 2 32.585255508589526 134.34313139167554 2 19.866146233339027 134.85411273559589 2 6.3185194068123955 136.68716501592061 2 193.18980047511417 132.31021254085874 2 137.77768074489938 135.76213872101457 2 11.424992245862292 161.78788997766577 2 36.153343541691044 163.02435493527065 2 160.59336289337642 154.38812364004892 2 7.7824418654657261 159.44847067527067 2 150.45002687905844 159.3988656838599 2 159.3966765704067 175.35621449840238 2 101.25664681954215 178.30886533988988 2 170.43672537796738 178.95087935473771 2 101.02366636216527 182.96408970565528 2 159.28770605313449 185.87953491158879 2 187.48623007135527 186.04056916986511 2 194.01791354860831 186.68431245307539 2 90.542382389586265 184.35195544499325 2 167.74894436156083 191.76493591136023 2 119.42337978676109 8.0880264682075165 2 71.864654827647911 12.040182476680952 2 50.88462934780997 22.925918708287359 2 125.8812500098108 24.317958497889482 2 20.393993265797189 25.977686080394278 2 174.78363294588573 34.127363554840734 2 193.47020115311577 35.276980237197748 2 66.522486679366466 39.178785924839332 2 150.54933156677077 38.934727652064048 2 154.22028274156673 57.156765537396176 2 197.21556755420215 41.002050511889145 2 80.657158667509464 58.801651829573778 2 64.216676932507539 74.318153211169573 2 79.361635454104473 79.287808345187202 2 85.724262418385408 94.25157754806277 2 195.23727143483245 82.103900713016685 2 62.703852118508117 81.551588658205688 2 185.58633935724166 91.525841376098242 2 11.240248182406344 89.546279491061682 2 172.54169040233103 104.9991264108788 2 70.149195018248633 107.51962681884989 2 134.00854357104109 103.91209490691362 2 162.71019775201029 116.23583917749465 2 13.258268673542581 113.43206937855834 2 189.52046233543521 115.00080146050095 2 149.4153993189376 120.2712640923729 2 185.04724610262838 130.85442954369756 2 38.400061073169901 120.06342217397604 2 77.065091739898349 126.26533981093687 2 34.21597869085241 122.42471863866105 2 150.48784673984463 141.19602835866718 2 22.948122631332652 126.63192955788928 2 27.0843189360445 143.0539774801473 2 197.21556755420215 143.33629416543457 2 15.655139230341176 147.41671328233517 2 142.19464545704227 147.34576356284049 2 197.61556755420216 155.68621527921928 2 28.884370856392898 151.21202145697836 2 169.95927327255643 163.15246183616259 2 46.186536719334129 164.52952373513304 2 95.483703148996227 161.74135164314694 2 157.4390377123234 163.7459917762944 2 149.0631086782864 175.03845640357909 2 168.38890675363842 187.18683022839184 2 184.71148892349976 192.82863733488151 2 77.693128747797076 196.50602696366911 2 2.9991339591678097 192.96723374298927 2 181.01808901165774 185.54902713090939 2 120.7295608269069 20.72727475285232 2 12.218176702447254 17.374446033627724 2 107.82726027170962 22.824914670814128 2 141.17526450047342 30.5430165367044 2 182.61911934228871 42.084222963966475 2 115.28980185699503 30.593618776426744 2 36.30209558775833 31.329444474536363 2 167.63172036344943 48.879811068026335 2 190.99040539019873 50.569099619829885 2 186.8521307059261 61.000593259223052 2 85.875661818937743 75.341034520592174 2 175.47538626665366 66.088128258731771 2 147.18652030501605 71.165116598511588 2 76.916942443426521 95.366325686037172 2 87.02591144082848 88.075993547958333 2 181.01044492599186 97.922835334679945 2 192.25143772189739 102.92067267581206 2 61.754992108138964 115.22979127081486 2 130.63478930949432 111.70444439173376 2 161.51180861307498 98.365679297565194 2 7.5870674550560384 102.76565110704526 2 182.80791129166906 117.5322251885195 2 175.00672122969516 128.41485352749331 2 38.130205975320806 124.97206866134489 2 30.09118684131024 141.73739617381204 2 16.590765057007047 142.20711889949783 2 2.7844324457978455 141.91414184294257 2 35.881823900553584 132.46370669280452 2 8.589209579792854 145.26522223355454 2 169.72115650898226 144.61730700569771 2 13.211222754261955 153.27524572973192 2 165.34803422755618 153.38478914331384 2 32.306548024712342 160.46263859771705 2 152.58176406108296 144.83500374547111 2 2.7844324457978455 152.80153650314975 2 41.699600848818122 153.54121239063963 2 147.12252098591017 155.85209090522872 2 161.80138238407309 169.90278622048382 2 96.670174482575064 188.14012009177944 2 197.41556755420214 173.11964064529241 2 176.10313078225809 170.80638313831085 2 102.20605933729759 187.41577502719329 2 163.92375802925602 185.33997886297817 2 197.21556755420215 179.92386432865885 2 81.086803790355333 183.5035434679744 2 181.49282905434916 197.21556755420215 2 99.038309983853949 68.809151731654282 2 32.602786987272346 149.51135212367382 2 42.209772062388573 137.1474915097736 2 11.624172108039208 132.46024554949324 2 88.663446300693423 59.987463698058754 2 93.783681386143925 76.925541073345343 2 95.084287987664723 65.996464708458788 2 111.26881837960229 60.766661473994645 2 26.662289574676713 37.726624527120521 2 42.70419687114002 147.75446963385252 2 82.509640732309691 2.7844324457978455 2 124.40989998098127 6.8848720627454822 2 6.0161218469373461 20.459654224464735 2 197.21556755420215 33.476314828766448 2 146.02568380801875 32.332569032818583 2 154.96006314769178 44.363989463892018 2 193.79876397629118 54.564768242142073 2 83.61033446776176 64.491386825498893 2 184.64051418760391 65.272251112037651 2 143.04466887434751 74.132838785095416 2 137.57686088941662 76.582192028357156 2 66.257805397785404 78.521251914766495 2 88.898298474250339 79.612248250675833 2 180.16946736726459 85.404819354350934 2 9.3392514826508055 94.274609139954023 2 178.76825492633282 101.91871754681192 2 75.1752966330818 107.95943558337238 2 129.88655590418961 96.398803789131463 2 164.87242257383488 105.27392784801228 2 2.7844324457978455 109.24516454427054 2 188.34923017438089 111.05937063913191 2 144.53681111878942 118.3657943520205 2 37.678182742633446 115.74251566551878 2 63.242890574463772 120.71422555439848 2 28.791123506786956 123.66101182348102 2 197.21556755420215 132.70604282378667 2 13.315108029830734 149.47331172385273 2 22.172919359207267 157.94776706747734 2 170.99433546330553 149.53265694315175 2 162.36654348655884 157.69677071873861 2 142.00635035092992 161.55782941617454 2 167.25504874557436 170.73573028562313 2 99.968754495476205 165.26200126166606 2 144.23924297569405 174.52453961517162 2 187.75668462296204 182.48888482279992 2 197.21556755420215 191.05439728862942 2 97.622225223390117 197.21556755420215 2 13.373288569017141 192.7549858406428 2 187.43027795465292 197.21556755420215 2 123.40409641702745 11.451559519693177 2 69.900656396784299 7.4716068030627927 2 15.786928714114822 29.660064594145492 2 132.37247018170416 35.796423316572579 2 26.679347259279382 32.122642921379573 2 182.92875601611271 30.284800271455058 2 197.21556755420215 28.46133867906353 2 115.95698003630037 39.258318977176216 2 159.35601348122003 56.701092761755469 2 190.2011995508559 54.47499558822026 2 85.092274606123723 56.309275821128324 2 197.21556755420215 72.859027698000503 2 79.20371702412352 74.841256090910605 2 167.86597580010775 61.403006165672601 2 151.57993104217002 73.7863942280364 2 140.23928634997367 83.257043435108898 2 71.686250609603462 90.030424269507265 2 95.238990668320568 84.949978422419676 2 168.29866676695789 100.59646610985858 2 70.980606148994752 85.055964082507217 2 189.37491757724518 94.780184963130324 2 197.21556755420215 103.16338463149933 2 154.27760413663606 101.27262505070865 2 7.6709307932261641 112.00887630238496 2 197.06320430142219 123.62511909174049 2 155.10130765545736 121.28668352157622 2 176.94659415023008 119.65291384147912 2 69.883369386815133 120.50319630857486 2 23.73970929644139 130.46502232102236 2 21.753180923247431 142.48569760027044 2 2.7844324457978455 149.239287572611 2 141.58444768727196 142.36833408994411 2 153.68485435586442 150.34241176069884 2 9.3570599405390116 155.72355956599392 2 155.95237105386866 154.43347135732034 2 153.34972866904812 167.27842526412368 2 91.762636778903271 180.62419690133837 2 178.277745043339 178.99098581378911 2 109.74143242423942 178.08891809448656 2 154.59508834360793 183.98505078282156 2 191.77847845299073 183.91848912514129 2 193.2349629567876 190.32951895683422 2 83.209461663290043 187.85264269778159 2 13.739214919097057 188.21366493528055 2 172.37265460592087 193.21100701149027 2 118.44131351585477 2.7844324457978455 2 24.387592587707992 23.143396383241424 2 128.1988943441421 33.283442205746766 2 16.357054489461124 34.345659418954305 2 172.58980988987599 41.964296899611924 2 189.81793986432459 29.237843223832165 2 145.4564944595073 38.408499327777676 2 188.87718680643167 46.422285054386975 2 192.58364819965641 71.953006520341432 2 73.821444593316258 73.387489840253778 2 74.914950422336588 86.383804227131606 2 79.028439048918827 87.781573383091953 2 175.3775152923925 93.565324386636121 2 18.987775265387661 90.551970048746838 2 176.81873889562456 97.314335753208439 2 138.88614507755119 106.16325133989677 2 171.71583718470316 112.01088700351045 2 197.21556755420215 110.38016993945438 2 148.2577977182066 115.17857115680813 2 189.93490423333273 122.75404809745319 2 24.191342301281459 114.32183673384188 2 27.678894705697626 127.07037455199944 2 28.64021887351387 134.02738784864053 2 26.149729866887991 146.69145487248599 2 192.76157713407292 136.6011995981608 2 14.083582319692661 144.34056289076221 2 193.9618761