<?xml version="1.0" ?>
<VTKFile byte_order="LittleEndian" type="UnstructuredGrid" version="0.1">
<UnstructuredGrid>
<Piece NumberOfCells="0" NumberOfPoints="532">
<Points>
<DataArray NumberOfComponents="3" format="ascii" type="Float32">32.501543611985333 2.404196630528539 3.0 86.232046286732583 6.9433816310460159 3.0 125.7087402520266 9.5431621602958323 3.0 78.553226318889358 18.253397340474418 3.0 7.2553522998787638 21.358947204749395 3.0 22.037344832548833 19.4619734937197 3.0 60.471195470413875 19.666073673147213 3.0 101.14772194655933 22.426393747522635 3.0 133.65629879594007 25.287822659285961 3.0 23.50109916683812 32.100532623513082 3.0 179.68108296444294 31.525159891276903 3.0 197.59580336947147 38.70896741296675 3.0 113.64758658644379 39.808712307182596 3.0 66.262571742061013 31.327872322086257 3.0 145.99503912471434 35.634705173694094 3.0 29.960894004561204 44.296029924951988 3.0 50.356197478593998 48.235580451235833 3.0 11.644849563717226 45.157991807516566 3.0 154.2501298472352 43.079919894000604 3.0 195.62100694478869 53.985861200638716 3.0 19.231563354337524 53.380807363406518 3.0 104.53809617904882 54.478147688173536 3.0 82.05940488379143 65.365834804324606 3.0 185.09486278549613 64.802145063944295 3.0 71.114544081386981 67.553662117778913 3.0 98.971211630896164 73.552846496539942 3.0 173.63760223041706 74.070448091669078 3.0 141.77158371588519 77.855386590147589 3.0 136.37792125338041 80.280903844116381 3.0 70.641375637357484 82.577506896146843 3.0 85.247743544354165 83.985547964688195 3.0 58.411148479447206 88.621959663722251 3.0 183.47881716439662 87.859183469853178 3.0 7.8150770027471372 98.767254449629604 3.0 182.12111952867079 105.23839781028092 3.0 74.456411122212586 104.40846111418558 3.0 133.58049969278355 99.83444074995586 3.0 161.71407021385153 109.46626227282742 3.0 2.9244346179114409 111.87134869086503 3.0 185.90279046973544 113.83986737925852 3.0 141.76472995159793 116.04192275950194 3.0 182.33088919455227 129.0410705802351 3.0 35.658044400986348 118.37845370600076 3.0 66.476806729401574 124.47285709858961 3.0 74.389551921220018 132.73994973374241 3.0 27.906994335857206 127.99259264724512 3.0 148.20393321901378 133.44603619680228 3.0 2.404196630528539 131.96703144719393 3.0 196.38334906069147 136.90507255176763 3.0 9.6102686465061193 149.76111219189039 3.0 143.50365968067911 152.3564030448027 3.0 178.63259296730786 148.98477096470683 3.0 19.833860681659644 155.45114693650439 3.0 167.53214361602113 153.61952527496905 3.0 32.163539634947988 152.01023994997905 3.0 160.93504260422895 159.5807442486159 3.0 11.034836929243252 159.41865927480967 3.0 117.58188001013437 154.19284723398241 3.0 41.32291606999874 163.32782356828059 3.0 147.93579752354239 162.42669829082266 3.0 92.369629304541519 159.16940261174534 3.0 165.52867010452889 166.56248479945071 3.0 95.96897031524469 169.44724615882114 3.0 180.12233783460832 170.69972879662495 3.0 102.12817737699054 171.86131961277539 3.0 147.65594175492245 180.29237401546055 3.0 186.45149139103029 184.7819849683147 3.0 194.31872311144841 193.5111941977211 3.0 92.215043443696572 197.59580336947147 3.0 14.147663154720403 197.59580336947147 3.0 188.28869430337249 197.33548492715744 3.0 93.942061813834442 5.8540838560427275 2 120.71587502154611 11.575479116613815 2 73.96960905471677 10.284038799302571 2 15.043588315223204 25.470554469254743 2 62.325839857816845 24.256950314635979 2 105.30198535594759 24.892301602372068 2 135.34021329055119 37.306496117281924 2 26.05185324415822 27.930163240912002 2 182.86714554213219 34.48767756903279 2 195.2463795810348 31.640612897567372 2 118.3445359556669 39.928425311596882 2 72.667846095922442 41.440381389338064 2 139.86644431613766 39.608935551942977 2 28.595821833496878 34.657007954530258 2 58.341595662960032 38.819020772818952 2 20.791393826877368 48.591169482120058 2 161.22780520596677 54.284710497552183 2 190.27226294448525 53.725351307178329 2 26.707263525718282 58.328487430795285 2 99.759575192648256 57.343468294076608 2 90.632389179536986 50.133411512912055 2 81.954456747124425 59.027303079098552 2 197.59580336947147 66.712234317227058 2 79.262373867313556 72.011647978409826 2 105.6665796962923 76.142955099019545 2 173.23372127093231 64.180676886640967 2 149.96459907430892 72.388923795545963 2 136.55362682140546 84.886866053058455 2 75.07842410114587 90.097095314405721 2 92.19737774321969 85.28937628186884 2 173.24441771980509 95.514796984944581 2 70.78013977510102 87.233860524393407 2 188.56931031595207 94.145714670274529 2 3.7195832498156283 93.09610546172712 2 194.40969945679839 105.73731654433807 2 73.425797490952192 109.77586465293457 2 135.68842451788785 115.07618873133742 2 154.60518654187265 106.9859327732801 2 6.7131676825303552 109.58806235694706 2 191.89232846513454 121.72338367034385 2 150.54916115545487 123.28078744701919 2 178.91233180232197 119.08305767800057 2 62.450810643492268 131.34818758132724 2 70.008546753141175 121.55784311972721 2 29.165562072136119 132.1627799811825 2 141.57377000554817 134.12132065223969 2 21.974671223295974 139.42499744369755 2 2.404196630528539 146.20342413294634 2 36.323187625392272 141.32730944125916 2 190.3461181395698 136.78895495339131 2 14.742675175809936 139.89979388132056 2 142.70252972353128 141.22145599950085 2 170.37360593681686 140.98550723981572 2 18.601694615969762 159.51681360174601 2 166.10670687023853 148.76428205768474 2 28.674341713458226 162.15392363087204 2 156.95458096871712 151.16911945375648 2 8.7658833528041153 153.8215024907951 2 123.04872606505964 153.92202758675541 2 49.052647299061306 154.12311744055233 2 154.10318776858682 156.07651269322707 2 101.37553553566146 163.41516357461992 2 157.61468711885476 169.59101300650201 2 92.814990570282788 177.56570859686454 2 196.88902473826045 166.59820526630432 2 177.25634507533988 181.20991259616778 2 104.90918037305252 178.06002938317047 2 152.69590462787494 184.61786793527864 2 191.56088452694004 183.63030490895451 2 197.59580336947147 190.53187580610714 2 88.582889083707897 188.70424513313478 2 14.825059780885367 191.56730717148568 2 176.74081988935498 196.75784152944965 2 28.671938107002976 4.4524338590678099 2 82.456410831672642 14.233539309129647 2 122.6362633516989 2.404196630528539 2 77.765835417935847 13.468224911409568 2 3.812649586919759 17.874703903901597 2 25.571546771526027 23.716945344234983 2 56.09846244411991 17.958247564918558 2 104.01498246309048 18.366613003773463 2 129.41690751839636 31.914166641286936 2 20.099220443580709 28.189907822088763 2 172.76262621595052 37.683065961632998 2 190.35059595087867 34.477275656836838 2 111.06723941112595 31.281510446125733 2 70.020529471064307 37.492214442151635 2 144.48665232475497 40.850104589064436 2 32.057899929335321 39.414304088345361 2 10.964352647629175 40.632367381204226 2 154.55377021232209 51.707414611334642 2 194.74327082438305 46.107118791566329 2 18.530816083472629 62.33296541041274 2 106.74727691045641 59.713211801369596 2 86.81562544442842 58.939143165094151 2 75.702331980073282 65.101196880848732 2 192.48406900253354 68.622440569695698 2 73.333494559493886 73.00656134105347 2 93.242484289027516 70.766818491761541 2 140.4597861455282 72.482569934235713 2 135.2074337000353 73.581625725637636 2 75.550833915392815 85.580460543542785 2 79.574117524332422 90.09287488870666 2 186.65742521925335 84.685125915526896 2 62.224125347899765 85.728167167237999 2 180.48429471415659 94.519530411989663 2 12.82673864365087 93.013801958280268 2 178.86646006989784 98.895646587654582 2 65.541211122497444 106.11888128141754 2 137.02075853667961 105.41519412494502 2 166.35187587190765 110.38332971855348 2 6.5010824555053208 117.28875891990437 2 192.12742219579619 113.08292888440801 2 146.26101678090484 114.83707907392274 2 190.16951314718625 125.91289274987545 2 28.777374492582801 123.51879701682789 2 68.342129717463109 133.97407238546936 2 80.914404326654335 129.6335448145048 2 33.369895309104365 130.07240519044484 2 149.63921960076547 139.04469531428046 2 25.201258408528755 135.14972468071761 2 10.37573358809817 136.30247538968786 2 27.524973837060941 145.80369312517823 2 195.58788723669861 140.95587350368027 2 42.22904280705113 136.82254297604837 2 12.406326887004905 146.19587077341146 2 140.24309568344992 146.55612033789635 2 195.93590650567623 148.27780645881288 2 24.57861479917706 149.09425763970719 2 172.39680026388757 157.99317785328796 2 27.098434139759853 157.25714959551624 2 165.34242796904206 158.65487229910514 2 3.9921799030046814 160.54857355078826 2 121.23914794128655 158.64519111265426 2 45.600842610769575 157.57400600761798 2 49.112299258498034 165.46329755401061 2 143.36669677564882 161.01625508812944 2 94.45397728022148 165.43570291640887 2 161.33791656672909 164.54452677776578 2 88.778604774727881 172.82626429096931 2 106.47608216767735 173.14174526151075 2 152.33374872041003 179.84399565311097 2 30.400732186063617 180.64150980856678 2 178.86590399150842 187.90777184479401 2 190.22069254740589 192.0480998377933 2 87.04218941829609 193.19799292289633 2 11.248208037244908 194.35433703454262 2 181.61206231690005 191.57547332679528 2 91.085136868401719 9.8242455835260678 2 115.43150592443141 16.552552273213013 2 69.20675613497842 10.544119977768323 2 17.321013967568536 12.608530507853917 2 11.670151857090461 20.151755263420938 2 62.166876837590685 29.278549995712108 2 113.82964729708804 21.009395036769046 2 136.79096895147504 32.268112310521722 2 34.76736439328598 24.275164176931433 2 180.28253211050989 40.064970850503549 2 188.63932137436274 30.282870684897716 2 118.65482911965758 34.183952255107585 2 68.679887452147881 44.913607567934243 2 140.565201698257 43.906186561669507 2 35.532408970642045 35.403662518075997 2 15.16207496921216 50.798028529701483 2 159.2673175875415 45.401027936989607 2 190.09673479584933 46.124015895640348 2 24.503627606550278 63.260613577858109 2 95.668479435723441 54.198763784947069 2 88.182991759387761 67.52060064252926 2 192.75047065285497 59.81393228020741 2 86.656619899409748 72.999641183219154 2 1
[...]
<PointData>
<DataArray Name="Points" NumberOfComponents="3" format="ascii" type="Float32">32.501543611985333 2.404196630528539 3.0 86.232046286732583 6.9433816310460159 3.0 125.7087402520266 9.5431621602958323 3.0 78.553226318889358 18.253397340474418 3.0 7.2553522998787638 21.358947204749395 3.0 22.037344832548833 19.4619734937197 3.0 60.471195470413875 19.666073673147213 3.0 101.14772194655933 22.426393747522635 3.0 133.65629879594007 25.287822659285961 3.0 23.50109916683812 32.100532623513082 3.0 179.68108296444294 31.525159891276903 3.0 197.59580336947147 38.70896741296675 3.0 113.64758658644379 39.808712307182596 3.0 66.262571742061013 31.327872322086257 3.0 145.99503912471434 35.634705173694094 3.0 29.960894004561204 44.296029924951988 3.0 50.356197478593998 48.235580451235833 3.0 11.644849563717226 45.157991807516566 3.0 154.2501298472352 43.079919894000604 3.0 195.62100694478869 53.985861200638716 3.0 19.231563354337524 53.380807363406518 3.0 104.53809617904882 54.478147688173536 3.0 82.05940488379143 65.365834804324606 3.0 185.09486278549613 64.802145063944295 3.0 71.114544081386981 67.553662117778913 3.0 98.971211630896164 73.552846496539942 3.0 173.63760223041706 74.070448091669078 3.0 141.77158371588519 77.855386590147589 3.0 136.37792125338041 80.280903844116381 3.0 70.641375637357484 82.577506896146843 3.0 85.247743544354165 83.985547964688195 3.0 58.411148479447206 88.621959663722251 3.0 183.47881716439662 87.859183469853178 3.0 7.8150770027471372 98.767254449629604 3.0 182.12111952867079 105.23839781028092 3.0 74.456411122212586 104.40846111418558 3.0 133.58049969278355 99.83444074995586 3.0 161.71407021385153 109.46626227282742 3.0 2.9244346179114409 111.87134869086503 3.0 185.90279046973544 113.83986737925852 3.0 141.76472995159793 116.04192275950194 3.0 182.33088919455227 129.0410705802351 3.0 35.658044400986348 118.37845370600076 3.0 66.476806729401574 124.47285709858961 3.0 74.389551921220018 132.73994973374241 3.0 27.906994335857206 127.99259264724512 3.0 148.20393321901378 133.44603619680228 3.0 2.404196630528539 131.96703144719393 3.0 196.38334906069147 136.90507255176763 3.0 9.6102686465061193 149.76111219189039 3.0 143.50365968067911 152.3564030448027 3.0 178.63259296730786 148.98477096470683 3.0 19.833860681659644 155.45114693650439 3.0 167.53214361602113 153.61952527496905 3.0 32.163539634947988 152.01023994997905 3.0 160.93504260422895 159.5807442486159 3.0 11.034836929243252 159.41865927480967 3.0 117.58188001013437 154.19284723398241 3.0 41.32291606999874 163.32782356828059 3.0 147.93579752354239 162.42669829082266 3.0 92.369629304541519 159.16940261174534 3.0 165.52867010452889 166.56248479945071 3.0 95.96897031524469 169.44724615882114 3.0 180.12233783460832 170.69972879662495 3.0 102.12817737699054 171.86131961277539 3.0 147.65594175492245 180.29237401546055 3.0 186.45149139103029 184.7819849683147 3.0 194.31872311144841 193.5111941977211 3.0 92.215043443696572 197.59580336947147 3.0 14.147663154720403 197.59580336947147 3.0 188.28869430337249 197.33548492715744 3.0 93.942061813834442 5.8540838560427275 2 120.71587502154611 11.575479116613815 2 73.96960905471677 10.284038799302571 2 15.043588315223204 25.470554469254743 2 62.325839857816845 24.256950314635979 2 105.30198535594759 24.892301602372068 2 135.34021329055119 37.306496117281924 2 26.05185324415822 27.930163240912002 2 182.86714554213219 34.48767756903279 2 195.2463795810348 31.640612897567372 2 118.3445359556669 39.928425311596882 2 72.667846095922442 41.440381389338064 2 139.86644431613766 39.608935551942977 2 28.595821833496878 34.657007954530258 2 58.341595662960032 38.819020772818952 2 20.791393826877368 48.591169482120058 2 161.22780520596677 54.284710497552183 2 190.27226294448525 53.725351307178329 2 26.707263525718282 58.328487430795285 2 99.759575192648256 57.343468294076608 2 90.632389179536986 50.133411512912055 2 81.954456747124425 59.027303079098552 2 197.59580336947147 66.712234317227058 2 79.262373867313556 72.011647978409826 2 105.6665796962923 76.142955099019545 2 173.23372127093231 64.180676886640967 2 149.96459907430892 72.388923795545963 2 136.55362682140546 84.886866053058455 2 75.07842410114587 90.097095314405721 2 92.19737774321969 85.28937628186884 2 173.24441771980509 95.514796984944581 2 70.78013977510102 87.233860524393407 2 188.56931031595207 94.145714670274529 2 3.7195832498156283 93.09610546172712 2 194.40969945679839 105.73731654433807 2 73.425797490952192 109.77586465293457 2 135.68842451788785 115.07618873133742 2 154.60518654187265 106.9859327732801 2 6.7131676825303552 109.58806235694706 2 191.89232846513454 121.72338367034385 2 150.54916115545487 123.28078744701919 2 178.91233180232197 119.08305767800057 2 62.450810643492268 131.34818758132724 2 70.008546753141175 121.55784311972721 2 29.165562072136119 132.1627799811825 2 141.57377000554817 134.12132065223969 2 21.974671223295974 139.42499744369755 2 2.404196630528539 146.20342413294634 2 36.323187625392272 141.32730944125916 2 190.3461181395698 136.78895495339131 2 14.742675175809936 139.89979388132056 2 142.70252972353128 141.22145599950085 2 170.37360593681686 140.98550723981572 2 18.601694615969762 159.51681360174601 2 166.10670687023853 148.76428205768474 2 28.674341713458226 162.15392363087204 2 156.95458096871712 151.16911945375648 2 8.7658833528041153 153.8215024907951 2 123.04872606505964 153.92202758675541 2 49.052647299061306 154.12311744055233 2 154.10318776858682 156.07651269322707 2 101.37553553566146 163.41516357461992 2 157.61468711885476 169.59101300650201 2 92.814990570282788 177.56570859686454 2 196.88902473826045 166.59820526630432 2 177.25634507533988 181.20991259616778 2 104.90918037305252 178.06002938317047 2 152.69590462787494 184.61786793527864 2 191.56088452694004 183.63030490895451 2 197.59580336947147 190.53187580610714 2 88.582889083707897 188.70424513313478 2 14.825059780885367 191.56730717148568 2 176.74081988935498 196.75784152944965 2 28.671938107002976 4.4524338590678099 2 82.456410831672642 14.233539309129647 2 122.6362633516989 2.404196630528539 2 77.765835417935847 13.468224911409568 2 3.812649586919759 17.874703903901597 2 25.571546771526027 23.716945344234983 2 56.09846244411991 17.958247564918558 2 104.01498246309048 18.366613003773463 2 129.41690751839636 31.914166641286936 2 20.099220443580709 28.189907822088763 2 172.76262621595052 37.683065961632998 2 190.35059595087867 34.477275656836838 2 111.06723941112595 31.281510446125733 2 70.020529471064307 37.492214442151635 2 144.48665232475497 40.850104589064436 2 32.057899929335321 39.414304088345361 2 10.964352647629175 40.632367381204226 2 154.55377021232209 51.707414611334642 2 194.74327082438305 46.107118791566329 2 18.530816083472629 62.33296541041274 2 106.74727691045641 59.713211801369596 2 86.81562544442842 58.939143165094151 2 75.702331980073282 65.101196880848732 2 192.48406900253354 68.622440569695698 2 73.333494559493886 73.00656134105347 2 93.242484289027516 70.766818491761541 2 140.4597861455282 72.482569934235713 2 135.2074337000353 73.581625725637636 2 75.550833915392815 85.580460543542785 2 79.574117524332422 90.09287488870666 2 186.65742521925335 84.685125915526896 2 62.224125347899765 85.728167167237999 2 180.48429471415659 94.519530411989663 2 12.82673864365087 93.013801958280268 2 178.86646006989784 98.895646587654582 2 65.541211122497444 106.11888128141754 2 137.02075853667961 105.41519412494502 2 166.35187587190765 110.38332971855348 2 6.5010824555053208 117.28875891990437 2 192.12742219579619 113.08292888440801 2 146.26101678090484 114.83707907392274 2 190.16951314718625 125.91289274987545 2 28.777374492582801 123.51879701682789 2 68.342129717463109 133.97407238546936 2 80.914404326654335 129.6335448145048 2 33.369895309104365 130.07240519044484 2 149.63921960076547 139.04469531428046 2 25.201258408528755 135.14972468071761 2 10.37573358809817 136.30247538968786 2 27.524973837060941 145.80369312517823 2 195.58788723669861 140.95587350368027 2 42.22904280705113 136.82254297604837 2 12.406326887004905 146.19587077341146 2 140.24309568344992 146.55612033789635 2 195.93590650567623 148.27780645881288 2 24.57861479917706 149.09425763970719 2 172.39680026388757 157.99317785328796 2 27.098434139759853 157.25714959551624 2 165.34242796904206 158.65487229910514 2 3.9921799030046814 160.54857355078826 2 121.23914794128655 158.64519111265426 2 45.600842610769575 157.57400600761798 2 49.112299258498034 165.46329755401061 2 143.36669677564882 161.01625508812944 2 94.45397728022148 165.43570291640887 2 161.33791656672909 164.54452677776578 2 88.778604774727881 172.82626429096931 2 106.47608216767735 173.14174526151075 2 152.33374872041003 179.84399565311097 2 30.400732186063617 180.64150980856678 2 178.86590399150842 187.90777184479401 2 190.22069254740589 192.0480998377933 2 87.04218941829609 193.19799292289633 2 11.248208037244908 194.35433703454262 2 181.61206231690005 191.57547332679528 2 91.085136868401719 9.8242455835260678 2 115.43150592443141 16.552552273213013 2 69.20675613497842 10.544119977768323 2 17.321013967568536 12.608530507853917 2 11.670151857090461 20.151755263420938 2 62.166876837590685 29.278549995712108 2 113.82964729708804 21.009395036769046 2 136.79096895147504 32.268112310521722 2 34.76736439328598 24.275164176931433 2 180.28253211050989 40.064970850503549 2 188.63932137436274 30.282870684897716 2 118.65482911965758 34.183952255107585 2 68.679887452147881 44.913607567934243 2 140.565201698257 43.906186561669507 2 35.532408970642045 35.403662518075997 2 15.16207496921216 50.798028529701483 2 159.2673175875415 45.401027936989607 2 190.09673479584933 46.124015895640348 2 24.503627606550278 63.260613577858109 2 95.668479435723441 54.198763784947069 2 88.182991759387761 67.52060064252926 2 192.75047065285497 59.81393228020741 2 86.656619899409748 72.999641183219154 2 104.09227380485282 69.182391029250198 2 181.7029029164635 67.731578405967781 2 145.14311435933445 67.601303193914461 2 131.86212357526099 82.7199630277388 2 80.871840209085491 97.449119354797716 2 87.582464173639934 92.620325220362417 2 178.51247393700254 88.255489048494297 2 67.249120911923342 93.692592038025992 2 187.64955626651042 99.125997962236411 2 6.8086149120920894 89.630217810486528 2 192.14007992945506 98.199751858115178 2 69.992632021587525 112.86939156497692 2 127.8537598065377 110.15718408086363 2 159.20256924496186 105.38710805623417 2 2.404196630528539 105.38420195089466 2 187.02770380130954 120.55131625875204 2 141.55055473249723 121.14298022636022 2 175.00977251998609 124.34185727917991 2 38.940379174915051 122.82741022872231 2 57.699119699008115 126.91962775761658 2 78.978511653968397 123.34278028819047 2 31.697129582281789 140.38143556999853 2 146.55844063013711 129.22219903689563 2 20.134995098708565 143.71712690825149 2 2.4247160453301677 137.3377403447405 2 37.028348223379041 136.7640209951519 2 190.53113901207405 141.60700481610397 2 9.6622053702310371 141.40883345144513 2 136.21914522416242 143.23563894606394 2 174.43288113843016 148.63952103641913 2 197.59580336947147 155.74850439718838 2 17.222861920707594 152.76390689344697 2 163.34901751095742 151.74073104320539 2 35.428574251894347 156.72416344380395 2 155.66281763795038 146.67704718131455 2 3.902832320873511 155.87036548919525 2 126.33953990342812 158.02418189627318 2 40.679679394070583 159.20125365163778 2 43.831271874908715 152.38333697346661 2 145.35280476649737 156.72944707922764 2 97.072124284171338 156.92669648963283 2 164.14571674714389 173.74617077977788 2 96.47171648413152 182.23770713880808 2 197.59580336947147 171.69742407236762 2 176.11100256951985 176.01387653297436 2 105.00273989928226 185.19269885086712 2 159.23913661088969 180.6056276344446 2 197.50652286660102 184.5415232993069 2 81.473924161327588 189.77903793657461 2 19.978595263670794 183.73489466460617 2 180.88330423250252 195.9768704482758 2 37.072813272444051 2.404196630528539 2 82.052536683071978 9.0926449551939115 2 126.67978604327418 4.9514446993429022 2 10.345755939116383 24.883768491390743 2 18.349526089250535 17.164859585902416 2 60.605370219901765 14.998781373680764 2 133.41794248644592 29.627241579739447 2 175.89677414160951 29.061114471472649 2 192.64568289154425 40.613973305420295 2 114.10243885070491 35.149248619578174 2 65.48835236534994 35.799308156044212 2 145.9557010783403 30.936676449959396 2 16.156532208420579 45.884369107424313 2 153.07907642043691 47.431555909890569 2 197.59580336947147 49.828283803973207 2 19.820244739581359 57.558914390266487 2 83.290101488690752 69.693127595249479 2 188.00181787290589 68.294556698278186 2 177.09685136241384 71.25846614288136 2 146.23288108214055 76.460549949326108 2 132.59927878212545 77.635553766060781 2 74.401126590789474 80.255447364160943 2 80.937456100338579 85.684154935537038 2 187.91173839420691 89.291398587415344 2 11.362693988057851 101.73978866350042 2 186.31022780776499 103.63357186022738 2 74.835571529117161 99.895388101200595 2 130.57147245815366 103.32533658802312 2 157.66830146690307 111.75357423152094 2 2.404196630528539 116.31217179700405 2 184.57758317742926 109.37981385704501 2 140.72424777987371 111.69792038882228 2 184.50937112006847 124.45455094839227 2 30.977094143677146 119.37474199110846 2 67.224608865516075 128.89912587507459 2 71.853564052709004 129.16804484729334 2 23.767641850710913 125.88535379770511 2 145.50736125038222 137.15706801602775 2 5.8153419113124842 134.42640065235767 2 197.59580336947147 132.72372379682247 2 5.4263039970212983 149.1729015943038 2 147.55663447029394 150.41773551325883 2 23.332197721742645 153.41088919919275 2 171.84922677345156 152.95302029185632 2 156.75330527936441 160.72946728777845 2 13.922688644059152 162.04246521011507 2 37.689864938952631 165.94155622607215 2 151.67840303921463 165.28253707043245 2 89.597123407053516 155.43419340530829 2 169.75504979545659 165.38502214729172 2 93.45826468753036 173.00622033457637 2 98.549942889374108 174.1092725292165 2 145.94458408542826 184.6688060472957 2 181.89835327086629 184.26181883521264 2 196.45186238999318 197.59580336947147 2 91.773421421969928 192.9642713113175 2 17.527727656231324 195.28311141277385 2 192.10928285930819 197.59580336947147 2 90.291450447123623 2.7171821650810095 2 124.2133859041097 14.841703219985211 2 74.385087191909321 5.5182735223553694 2 17.114143508101645 21.396988873972621 2 109.52592240661917 27.087856208873248 2 130.68397606070442 36.40896786746243 2 30.091145993527249 29.290989204230765 2 186.63163673702007 36.91906967647563 2 195.92692384163729 27.004882815649381 2 122.30848545418431 37.20731615654455 2 77.055952867545955 43.213688873803363 2 139.85671005184633 35.371279960638361 2 158.90889900161656 50.134315972121051 2 185.81422164025389 55.008084599095596 2 23.625830663967946 54.738976508613547 2 87.390355987980911 53.631252826204495 2 77.621414715774463 57.893091701310013 2 193.74118419548273 64.260093152640849 2 75.932939974985558 69.335554876357421 2 108.42155535213892 72.279134137203073 2 173.80226617247948 68.664540926887341 2 152.80809470903398 76.08537738421046 2 132.62590016734183 87.579602935926161 2 72.390852422386374 93.587784141388994 2 88.46343688910008 87.932476703207726 2 176.61563535884369 92.739937316231504 2 66.260844366553272 88.460201888372936 2 193.26898927907172 93.679414630824141 2 2.404196630528539 97.588874894436387 2 189.63744926810088 107.28388135663189 2 77.544060450188155 107.64625134032168 2 136.43187269063236 110.13387158511912 2 152.91599612086316 111.54328559089733 2 9.5081995031835795 106.00576010270386 2 195.0092125533491 118.22111868524205 2 146.07472840703224 123.7778434152987 2 179.85329830244126 123.68324694419343 2 62.37662630771235 126.5606316835275 2 73.188627164460783 124.82168629960428 2 30.925308898508039 136.13292778100609 2 20.451714557603196 135.34956650759415 2 5.7253802449919 143.24255675681607 2 193.17451536030123 133.43624549576612 2 138.73691292376964 138.51363441538129 2 14.710849367675578 157.01028960120098 2 166.73390664277497 144.39918766399941 2 33.648935000883085 162.15187852942424 2 158.3340382853728 155.60835038528225 2 7.6293404297119984 157.85375832236315 2 151.62281708349568 159.84937686305895 2 157.87606137115711 174.21277176316033 2 97.360535205757657 178.109130288182 2 172.83005060249593 179.53230196134336 2 101.12445697932654 180.90399664957491 2 157.47108407036842 185.06678201506398 2 189.82515274075419 187.67242264578908 2 194.27378768421397 187.51290268477521 2 89.765855955452864 184.08885933741152 2 17.393026651022748 187.93382099094006 2 172.51713370663916 195.13961024255534 2 86.324779952818176 11.68087973296471 2 121.36608513503641 6.9006436653967231 2 73.473418832521503 15.036578537672785 2 8.4216441719812707 16.262761737707613 2 26.383108855161076 19.587426338372548 2 53.13490757830305 21.74138695133221 2 108.79353055864063 17.972826951509905 2 129.39710249433116 27.165979792419972 2 21.06292468164856 23.777814856566316 2 175.93021621152894 34.186885529829006 2 194.3493425227864 36.166729413595725 2 106.30461395956154 31.854838993544877 2 66.171266123369662 40.325611113855203 2 149.0607894541474 39.465107014304671 2 36.82028932342488 39.850367764749421 2 7.9050288651479637 37.042848418546384 2 154.01889759662475 56.235234396557097 2 197.59580336947147 42.98863969466592 2 78.891193696660679 62.268269764199665 2 192.35285795720986 73.243473061373692 2 70.341578272112258 76.53450415829785 2 78.616907243475111 81.926277777937031 2 82.910685723194973 93.305845616387558 2 190.91785331046302 82.642810864799529 2 66.410374303810087 83.790219325490156 2 184.33798694390666 92.320691282775741 2 8.3168983606995468 94.369453313906547 2 177.88584019731542 103.48163268573416 2 70.18910465179205 105.7794325219416 2 132.65258641619755 107.40983075863062 2 164.67049312056685 114.88530185343333 2 10.849766925081397 115.98564267782513 2 190.28486943073119 117.31450739239132 2 147.75579423338314 119.35100715276599 2 186.73113396291583 128.83622413514374 2 34.369405525964389 122.65842137178042 2 76.794984837898284 127.56572538703087 2 32.221408184488716 126.36039477948168 2 148.04357060291281 143.34937006017347 2 24.040752949189379 130.59526341067502 2 24.130863353567594 143.30047527519963 2 197.59580336947147 144.56741811599645 2 16.040210852923433 148.81557387662994 2 144.49986382710904 146.01387104262042 2 197.59580336947147 151.81260269659469 2 27.571898473288368 152.7110550689975 2 173.55727331211617 162.81571104800514 2 23.009405754153622 158.40788258915626 2 168.91429539619097 160.93824492358661 2 4.088348888597662 165.33468456365924 2 45.75832649963791 162.19354219429118 2 44.280421564647966 166.7493910922006 2 144.44787389570476 165.6583307729812 2 96.360790573946971 161.59831735625446 2 156.41952857457119 165.25106144409577 2 88.179490953121331 177.5401093354306 2 105.02898921660298 168.38021651595017 2 153.1890423633061 175.13872470610895 2 174.98048083856773 185.27974974628722 2 185.93940692007342 193.43226840271635 2 82.501165704250397 194.46655739807653 2 6.8942537208732393 192.94457163767373 2 185.42623255042562 189.01369431322991 2 120.12793093908581 17.292621445392903 2 69.028804806750472 15.006819724157522 2 13.931848595427564 16.214400912150214 2 57.712328316392437 30.824041539717861 2 109.41851106658766 22.564161679593976 2 141.28325153379947 31.02144819881963 2 30.10009278576938 24.665993637628311 2 184.93653212794339 41.199383815205557 2 191.12076558761129 26.356428094359664 2 115.61985058271493 30.502258537322032 2 141.34818844512247 48.391827964468241 2 33.321027345580887 31.824931079914496 2 163.3373158502894 48.538961027110801 2 192.89017505082703 50.111140000169307 2 95.369960766117558 49.431667679539274 2 188.87584518295307 62.444850144947452 2 82.440412450940073 75.198170488408365 2 177.95887924641053 64.941361240377418 2 145.47995286070477 71.950234406248711 2 127.65428969536757 81.134584666365271 2 77.198032157165045 94.389226114501753 2 84.113512760049559 88.872499361341497 2 183.47361099042982 97.702511001619172 2 10.7191