<?xml version="1.0" ?>
<VTKFile byte_order="LittleEndian" type="UnstructuredGrid" version="0.1">
<UnstructuredGrid>
<Piece NumberOfCells="0" NumberOfPoints="298">
<Points>
<DataArray NumberOfComponents="3" format="ascii" type="Float32">32.171238510211495 2.8290979429048795 3.0 85.487438807211788 8.0108112214460778 3.0 125.46168892152203 8.718433420813458 3.0 79.789386924069959 19.176981893332659 3.0 8.8351845673451006 21.732579080827964 3.0 21.099943060867279 19.112714792211563 3.0 61.708731940736406 19.465750410815595 3.0 101.35919523044758 22.55283915644581 3.0 134.3112656796045 27.493163428940246 3.0 23.463269950456432 31.801028420262448 3.0 178.44879993154089 32.664936124143615 3.0 195.68687480377449 38.703084992888506 3.0 112.53842915526931 37.987972331021311 3.0 65.892741441463244 33.399571403533876 3.0 145.66091751350018 34.922163700017364 3.0 29.665870827570192 43.695252989606452 3.0 50.581621591384312 47.282052463120898 3.0 13.255417857518388 45.489559577673063 3.0 154.18707865796824 45.771550733929274 3.0 196.35392082251045 51.837479852864789 3.0 19.932980000180919 55.524700400681574 3.0 103.6366706181836 54.358259851674276 3.0 92.150033120233189 58.469249490857258 3.0 81.86220313720807 66.6704399938248 3.0 187.45701797341897 66.31049628165168 3.0 72.171667621043355 67.061796421216314 3.0 98.790290957709303 72.933875789544672 3.0 175.6437969885192 72.617710127315291 3.0 142.68909482624906 77.08863640677788 3.0 134.81863217483487 79.178632460241502 3.0 71.562812581126352 83.266300497409404 3.0 83.623295206334433 85.370378726011396 3.0 59.866175451209749 89.482724281409105 3.0 183.33226532205893 88.918239988990166 3.0 8.7334317881984322 98.945442135477961 3.0 183.23870728674106 103.85919066599658 3.0 73.097594759933045 104.2864962314557 3.0 132.92927940436539 102.37522189910278 3.0 160.16219367906044 110.19533997754252 3.0 2.8290979429048795 113.69190073170897 3.0 185.61515814002584 113.44096675244876 3.0 141.00401542321654 115.67552217529149 3.0 183.18991316601094 127.81230003111203 3.0 34.852571406915033 120.650701007883 3.0 67.356097797881432 127.01049986891475 3.0 73.587552706368726 131.33789042538262 3.0 27.484613032969573 129.39327432962406 3.0 147.44946308222515 133.67955026238315 3.0 19.265735176224318 131.74807423155664 3.0 4.3402895610711925 134.41280075583612 3.0 197.17090205709513 136.93408609324572 3.0 6.8660102181036429 149.20977072544696 3.0 143.62676863769272 152.07770896360208 3.0 177.45282661051033 148.50368578432935 3.0 20.720590255432668 153.86809144630078 3.0 170.11137539688963 153.55345407207534 3.0 30.136132356672285 152.2354689507082 3.0 160.30106942888153 158.08284425359309 3.0 11.556217818534886 159.08320581181547 3.0 117.94630442063519 154.40253372420085 3.0 41.006372778088775 162.77410908645595 3.0 50.967407205696631 159.78692591618551 3.0 149.41381088683451 161.56201844287892 3.0 92.57543561507822 158.74467413408681 3.0 165.8456442815901 166.59163438071269 3.0 94.645740026602155 170.57961871841715 3.0 180.91605303512671 170.93051143179693 3.0 100.16524322060903 174.6156879004414 3.0 147.42882400296099 181.44450778074801 3.0 185.1824112384173 186.51609611554571 3.0 193.40850090096265 193.87572556735773 3.0 91.58161366902398 196.56597873358484 3.0 15.978756901158913 197.15786651715914 3.0 188.78103619759278 197.17090205709513 3.0 23.187850800879144 3.0604716305380006 2 94.203392743019236 4.865311904543649 2 121.38838950786821 12.516250649087025 2 73.568416313226209 10.094474253818301 2 10.03482617169213 13.6441253173143 2 16.533932840996972 23.251308695202901 2 64.014200891781442 24.309246885437741 2 106.7486169619375 24.498495428815815 2 134.22861750307635 36.207947310378877 2 28.350099338646412 29.235516435342433 2 183.51182761913938 34.984620196009274 2 195.12706197673523 31.205925097673539 2 119.02786865958487 39.329466012224032 2 72.727022719058496 42.057001979278667 2 139.8589381355454 38.566403105560646 2 27.896624675028875 34.833191013449067 2 57.917343222253429 40.202355034570594 2 18.765929522201031 47.63196723510513 2 160.2854758174596 52.771916881109661 2 189.76182091880125 53.040668875836332 2 25.196280818385922 57.611840258241834 2 99.430789170157482 57.666264316214836 2 90.343486006741145 51.362872790443951 2 81.373193618276531 60.661840110657685 2 197.07569327913484 66.538611120823006 2 79.193620704751652 71.560258944854453 2 106.65698124237501 74.560953042154139 2 174.99543198155484 67.079174624910962 2 148.92102986866959 72.951679344491637 2 135.38772500226668 84.717075746102651 2 75.151221071041249 91.903603933913431 2 89.878155212096658 87.048217997664722 2 176.21923448269024 93.850526864290103 2 68.96281428406013 88.191289637807756 2 189.05439612397015 94.355663366314715 2 4.1383027275269351 93.594770234486433 2 192.63825003575991 105.10646270601127 2 74.0983945059793 109.76496155100347 2 135.80369088759898 113.04771586901707 2 154.9148611779498 108.32968070386525 2 6.2383790867939668 109.28826769033786 2 191.45986225937321 121.32811117854017 2 146.91356241994762 123.26296680643003 2 181.08190663572603 121.10848528234972 2 62.539128775918769 129.80552752441864 2 71.956448391040126 123.87167496074359 2 29.876874418943647 134.36268558565931 2 141.77131640992175 133.20668556743465 2 23.252179648749486 139.89963262635794 2 2.8290979429048795 145.37856153775678 2 36.496093472388502 141.40874720151155 2 190.43605140485118 136.83004461517018 2 13.246783773102065 141.13236644204162 2 141.98644331011917 141.33862582121412 2 172.63319698136783 142.74341878410337 2 17.01458891462617 157.9587787356904 2 166.65675380899648 148.83609208701179 2 29.706997555564715 160.73800298674217 2 157.60486313457767 153.15841163901447 2 9.9739406992543067 153.72168919387852 2 123.51602901225579 154.49922267634105 2 48.542180424741865 154.7803233285106 2 153.09772720963099 156.57994263646953 2 101.37278809811025 163.1795459985664 2 158.26584132830337 170.30066249827652 2 94.905799775382434 176.44692699496031 2 197.37090205709512 168.17996812379332 2 177.46428418837309 181.78409127968683 2 102.95807509758177 179.43391067568677 2 154.32704962617171 184.48804695507906 2 190.71078531117431 185.9860105947636 2 197.17090205709513 189.82225446608305 2 88.163684991126217 188.00450020074317 2 16.431591395548452 191.60795055124802 2 177.63017132995648 196.47319689744165 2 27.96050387767227 5.7852332897356389 2 83.922398715990042 13.355505649951612 2 122.5762919259258 3.9550663810029376 2 75.795144532019975 15.295809426253953 2 5.6016812860710816 17.199382398821829 2 24.894873761292363 23.186308994679553 2 56.151336487532475 19.093782929008707 2 105.37140927271133 18.987604064052608 2 130.70959720171734 31.74088814031948 2 20.740646963494495 27.026052402770528 2 174.29461223422325 36.374101543725409 2 191.15734685221364 35.462937260581974 2 110.4012624609208 32.41167575045521 2 68.460337388344087 38.340899845116688 2 145.19238814576144 40.471547557326986 2 33.596159821804306 39.742572689202738 2 11.03802756633713 40.382249406118497 2 154.82087534224675 51.304496070128849 2 197.17090205709513 46.221294630838742 2 18.556353824578462 60.996916743860467 2 105.76761097963448 59.363748921380754 2 86.987278445006027 59.918051791314127 2 76.908258969148761 64.125757100417061 2 192.14512531176587 69.320518103446545 2 73.605288485495095 72.442135688238906 2 93.524279244336739 70.963033621946167 2 140.33242271174026 72.268577217398345 2 133.42707785591861 73.99398000424091 2 76.324252679740823 86.154987213733605 2 80.488478513873844 89.985646416845015 2 186.93325366069169 84.151682204108027 2 63.813395264453675 85.846334354877982 2 181.86043030137031 94.289406753027748 2 10.589874942013356 93.6871685076852 2 179.62164718104225 99.517222769580954 2 67.794825216649954 105.98835821074377 2 135.30671893235453 107.41138730968002 2 165.55618033812328 111.58101298346887 2 6.7385466609009574 117.65818271534 2 190.88123499186912 115.6193132833311 2 146.21159737809523 117.6455312965293 2 188.50763060247328 126.15787738848432 2 31.272621904742753 125.29503772669412 2 68.14601192403515 132.52332434210965 2 78.48576100502487 128.68784484729994 2 33.87153029722672 130.5799702829764 2 147.24234880182601 139.24111694760956 2 24.22704383045933 134.3098058184091 2 9.3858941354560343 137.0104717843804 2 26.23555052049775 144.9599923235744 2 196.60671087784016 142.47456165262656 2 40.581009359162337 137.39430927977978 2 12.158044370371083 147.62733803514885 2 141.41307149618046 146.96725303258359 2 197.17090205709513 148.64682310181095 2 25.072498119431391 150.40385521885156 2 171.49410896669778 159.02981249099432 2 26.355852875065477 156.17899809435397 2 165.87175102871169 158.38216385189895 2 6.588116349070007 161.56864312074964 2 120.70192028618824 158.96137551448035 2 45.426910951963897 159.26277510199623 2 47.632729359646206 164.47020153073822 2 143.88110190003826 162.19787396688409 2 95.686628663533554 163.60086049177744 2 160.48156856376988 165.09434574145746 2 89.906756836603662 173.79650249091827 2 105.26711403818148 172.38273140137662 2 152.49616311477143 179.13425773790163 2 30.483027277219065 180.56993973558676 2 179.32554453639187 187.05501796403669 2 188.4380729112053 191.26089100126612 2 86.916928412490748 193.52362874628662 2 11.324983002783471 194.09063744505858 2 182.81662046052031 191.60325084618677 2 90.871247801323221 9.4364535985910418 2 117.50004580197995 16.626721044010651 2 69.159550822945675 13.772366192969288 2 15.421613427921281 13.087207034553659 2 13.898205837008655 18.271835366804972 2 62.023656016156423 29.393123250276687 2 111.83215994922993 22.013989143282004 2 137.83183763860868 31.845379009810671 2 32.465610445207354 25.335234769823721 2 181.51404394624151 40.278394035358964 2 189.54980236105405 30.037904403961765 2 116.59297949875206 34.152720193385498 2 67.353130148622597 43.889445932733452 2 140.77157098028846 44.150512886213129 2 33.139479108568359 33.416455387064431 2 14.392994623845993 51.015781038394231 2 159.7205310317436 47.137865454693916 2 191.71792916557942 47.731353791352298 2 24.286521500668552 63.19641891646004 2 95.288718764290508 54.114385657746524 2 87.351152907065853 67.565385658227299 2 192.28299445329412 63.531083835113328 2 84.724107184613374 72.756883238717464 2 103.67094251961618 69.753575687305954 2 180.50344495151705 68.374160472321748 2 144.77768892474231 69.098368497764312 2 130.18062952359077 82.260808507382151 2 79.678135124757802 95.585550666369002 2 86.018107827131587 91.185258330187722 2 177.97060258619479 88.678727956036113 2 69.125561161940553 93.847176061351149 2 185.3812463742631 98.718653631445036 2 7.4332253484674347 89.013325450189953 2 190.95284232687345 99.705127936590713 2 69.686892051173359 113.30809975847994 2 130.59737683671634 110.66871950267753 2 159.3329171635485 104.68727965557679 2 2.8290979429048795 104.77251936658639 2 186.31855895282146 118.9654988932063 2 141.52221395115424 121.21988701656508 2 176.8579673948426 124.87337897343261 2 37.035368443184105 125.76197261451776 2 57.449595835677904 127.33329822364745 2 77.562540135328149 123.10547541388894 2 28.995202696427903 139.96205364150475 2 145.10928875889635 128.62038408578104 2 18.571075950233151 143.06398534718127 2 2.8290979429048795 139.75974430099572 2 35.215496716897384 135.98191178878909 2 190.3734295570884 142.09343227436696 2 8.2027553909815829 143.60954189093113 2 136.73954867510724 143.77767839639884 2 172.28768955236646 148.39130264135389 2 197.17090205709513 158.0777310381832 2 15.414497694527981 152.25716498610564 2 163.25869229586837 153.36995528863059 2 34.490652331687023 157.71504115705366 2 154.9751643750615 148.15007404916835 2 4.271767283421128 154.17764852219088 2 127.95253470426005 157.31542997063622 2 40.126103093000559 157.26761760662779 2 44.009854284486991 152.10713647911484 2 147.44754681255961 156.31075115819908 2 98.138817798524684 158.5019096781231 2 163.50445919267841 172.43890099109959 2 97.614683406516733 181.41453516219505 2 197.15236641409552 173.63427581794983 2 175.79981259718627 176.37580232952374 2 103.16093135248045 185.08846902152337 2 159.5500850224573 182.31202259196314 2 197.17090205709513 184.15922143245552 2 82.652844274905149 189.31437547996018 2 18.586735790408238 186.81060211574456 2 183.23948239430922 197.17090205709513 2 </DataArray>
</Points>
<Cells>
<DataArray Name="connectivity" format="ascii" type="Int32">0</DataArray>
<DataArray Name="offsets" format="ascii" type="Int32">0</DataArray>
<DataArray Name="types" format="ascii" type="UInt8">1</DataArray>
</Cells>
<PointData>
<DataArray Name="Points" NumberOfComponents="3" format="ascii" type="Float32">32.171238510211495 2.8290979429048795 3.0 85.487438807211788 8.0108112214460778 3.0 125.46168892152203 8.718433420813458 3.0 79.789386924069959 19.176981893332659 3.0 8.8351845673451006 21.732579080827964 3.0 21.099943060867279 19.112714792211563 3.0 61.708731940736406 19.465750410815595 3.0 101.35919523044758 22.55283915644581 3.0 134.3112656796045 27.493163428940246 3.0 23.463269950456432 31.801028420262448 3.0 178.44879993154089 32.664936124143615 3.0 195.68687480377449 38.703084992888506 3.0 112.53842915526931 37.987972331021311 3.0 65.892741441463244 33.399571403533876 3.0 145.66091751350018 34.922163700017364 3.0 29.665870827570192 43.695252989606452 3.0 50.581621591384312 47.282052463120898 3.0 13.255417857518388 45.489559577673063 3.0 154.18707865796824 45.771550733929274 3.0 196.35392082251045 51.837479852864789 3.0 19.932980000180919 55.524700400681574 3.0 103.6366706181836 54.358259851674276 3.0 92.150033120233189 58.469249490857258 3.0 81.86220313720807 66.6704399938248 3.0 187.45701797341897 66.31049628165168 3.0 72.171667621043355 67.061796421216314 3.0 98.790290957709303 72.933875789544672 3.0 175.6437969885192 72.617710127315291 3.0 142.68909482624906 77.08863640677788 3.0 134.81863217483487 79.178632460241502 3.0 71.562812581126352 83.266300497409404 3.0 83.623295206334433 85.370378726011396 3.0 59.866175451209749 89.482724281409105 3.0 183.33226532205893 88.918239988990166 3.0 8.7334317881984322 98.945442135477961 3.0 183.23870728674106 103.85919066599658 3.0 73.097594759933045 104.2864962314557 3.0 132.92927940436539 102.37522189910278 3.0 160.16219367906044 110.19533997754252 3.0 2.8290979429048795 113.69190073170897 3.0 185.61515814002584 113.44096675244876 3.0 141.00401542321654 115.67552217529149 3.0 183.18991316601094 127.81230003111203 3.0 34.852571406915033 120.650701007883 3.0 67.356097797881432 127.01049986891475 3.0 73.587552706368726 131.33789042538262 3.0 27.484613032969573 129.39327432962406 3.0 147.44946308222515 133.67955026238315 3.0 19.265735176224318 131.74807423155664 3.0 4.3402895610711925 134.41280075583612 3.0 197.17090205709513 136.93408609324572 3.0 6.8660102181036429 149.20977072544696 3.0 143.62676863769272 152.07770896360208 3.0 177.45282661051033 148.50368578432935 3.0 20.720590255432668 153.86809144630078 3.0 170.11137539688963 153.55345407207534 3.0 30.136132356672285 152.2354689507082 3.0 160.30106942888153 158.08284425359309 3.0 11.556217818534886 159.08320581181547 3.0 117.94630442063519 154.40253372420085 3.0 41.006372778088775 162.77410908645595 3.0 50.967407205696631 159.78692591618551 3.0 149.41381088683451 161.56201844287892 3.0 92.57543561507822 158.74467413408681 3.0 165.8456442815901 166.59163438071269 3.0 94.645740026602155 170.57961871841715 3.0 180.91605303512671 170.93051143179693 3.0 100.16524322060903 174.6156879004414 3.0 147.42882400296099 181.44450778074801 3.0 185.1824112384173 186.51609611554571 3.0 193.40850090096265 193.87572556735773 3.0 91.58161366902398 196.56597873358484 3.0 15.978756901158913 197.15786651715914 3.0 188.78103619759278 197.17090205709513 3.0 23.187850800879144 3.0604716305380006 2 94.203392743019236 4.865311904543649 2 121.38838950786821 12.516250649087025 2 73.568416313226209 10.094474253818301 2 10.03482617169213 13.6441253173143 2 16.533932840996972 23.251308695202901 2 64.014200891781442 24.309246885437741 2 106.7486169619375 24.498495428815815 2 134.22861750307635 36.207947310378877 2 28.350099338646412 29.235516435342433 2 183.51182761913938 34.984620196009274 2 195.12706197673523 31.205925097673539 2 119.02786865958487 39.329466012224032 2 72.727022719058496 42.057001979278667 2 139.8589381355454 38.566403105560646 2 27.896624675028875 34.833191013449067 2 57.917343222253429 40.202355034570594 2 18.765929522201031 47.63196723510513 2 160.2854758174596 52.771916881109661 2 189.76182091880125 53.040668875836332 2 25.196280818385922 57.611840258241834 2 99.430789170157482 57.666264316214836 2 90.343486006741145 51.362872790443951 2 81.373193618276531 60.661840110657685 2 197.07569327913484 66.538611120823006 2 79.193620704751652 71.560258944854453 2 106.65698124237501 74.560953042154139 2 174.99543198155484 67.079174624910962 2 148.92102986866959 72.951679344491637 2 135.38772500226668 84.717075746102651 2 75.151221071041249 91.903603933913431 2 89.878155212096658 87.048217997664722 2 176.21923448269024 93.850526864290103 2 68.96281428406013 88.191289637807756 2 189.05439612397015 94.355663366314715 2 4.1383027275269351 93.594770234486433 2 192.63825003575991 105.10646270601127 2 74.0983945059793 109.76496155100347 2 135.80369088759898 113.04771586901707 2 154.9148611779498 108.32968070386525 2 6.2383790867939668 109.28826769033786 2 191.45986225937321 121.32811117854017 2 146.91356241994762 123.26296680643003 2 181.08190663572603 121.10848528234972 2 62.539128775918769 129.80552752441864 2 71.956448391040126 123.87167496074359 2 29.876874418943647 134.36268558565931 2 141.77131640992175 133.20668556743465 2 23.252179648749486 139.89963262635794 2 2.8290979429048795 145.37856153775678 2 36.496093472388502 141.40874720151155 2 190.43605140485118 136.83004461517018 2 13.246783773102065 141.13236644204162 2 141.98644331011917 141.33862582121412 2 172.63319698136783 142.74341878410337 2 17.01458891462617 157.9587787356904 2 166.65675380899648 148.83609208701179 2 29.706997555564715 160.73800298674217 2 157.60486313457767 153.15841163901447 2 9.9739406992543067 153.72168919387852 2 123.51602901225579 154.49922267634105 2 48.542180424741865 154.7803233285106 2 153.09772720963099 156.57994263646953 2 101.37278809811025 163.1795459985664 2 158.26584132830337 170.30066249827652 2 94.905799775382434 176.44692699496031 2 197.37090205709512 168.17996812379332 2 177.46428418837309 181.78409127968683 2 102.95807509758177 179.43391067568677 2 154.32704962617171 184.48804695507906 2 190.71078531117431 185.9860105947636 2 197.17090205709513 189.82225446608305 2 88.163684991126217 188.00450020074317 2 16.431591395548452 191.60795055124802 2 177.63017132995648 196.47319689744165 2 27.96050387767227 5.7852332897356389 2 83.922398715990042 13.355505649951612 2 122.5762919259258 3.9550663810029376 2 75.795144532019975 15.295809426253953 2 5.6016812860710816 17.199382398821829 2 24.894873761292363 23.186308994679553 2 56.151336487532475 19.093782929008707 2 105.37140927271133 18.987604064052608 2 130.70959720171734 31.74088814031948 2 20.740646963494495 27.026052402770528 2 174.29461223422325 36.374101543725409 2 191.15734685221364 35.462937260581974 2 110.4012624609208 32.41167575045521 2 68.460337388344087 38.340899845116688 2 145.19238814576144 40.471547557326986 2 33.596159821804306 39.742572689202738 2 11.03802756633713 40.382249406118497 2 154.82087534224675 51.304496070128849 2 197.17090205709513 46.221294630838742 2 18.556353824578462 60.996916743860467 2 105.76761097963448 59.363748921380754 2 86.987278445006027 59.918051791314127 2 76.908258969148761 64.125757100417061 2 192.14512531176587 69.320518103446545 2 73.605288485495095 72.442135688238906 2 93.524279244336739 70.963033621946167 2 140.33242271174026 72.268577217398345 2 133.42707785591861 73.99398000424091 2 76.324252679740823 86.154987213733605 2 80.488478513873844 89.985646416845015 2 186.93325366069169 84.151682204108027 2 63.813395264453675 85.846334354877982 2 181.86043030137031 94.289406753027748 2 10.589874942013356 93.6871685076852 2 179.62164718104225 99.517222769580954 2 67.794825216649954 105.98835821074377 2 135.30671893235453 107.41138730968002 2 165.55618033812328 111.58101298346887 2 6.7385466609009574 117.65818271534 2 190.88123499186912 115.6193132833311 2 146.21159737809523 117.6455312965293 2 188.50763060247328 126.15787738848432 2 31.272621904742753 125.29503772669412 2 68.14601192403515 132.52332434210965 2 78.48576100502487 128.68784484729994 2 33.87153029722672 130.5799702829764 2 147.24234880182601 139.24111694760956 2 24.22704383045933 134.3098058184091 2 9.3858941354560343 137.0104717843804 2 26.23555052049775 144.9599923235744 2 196.60671087784016 142.47456165262656 2 40.581009359162337 137.39430927977978 2 12.158044370371083 147.62733803514885 2 141.41307149618046 146.96725303258359 2 197.17090205709513 148.64682310181095 2 25.072498119431391 150.40385521885156 2 171.49410896669778 159.02981249099432 2 26.355852875065477 156.17899809435397 2 165.87175102871169 158.38216385189895 2 6.588116349070007 161.56864312074964 2 120.70192028618824 158.96137551448035 2 45.426910951963897 159.26277510199623 2 47.632729359646206 164.47020153073822 2 143.88110190003826 162.19787396688409 2 95.686628663533554 163.60086049177744 2 160.48156856376988 165.09434574145746 2 89.906756836603662 173.79650249091827 2 105.26711403818148 172.38273140137662 2 152.49616311477143 179.13425773790163 2 30.483027277219065 180.56993973558676 2 179.32554453639187 187.05501796403669 2 188.4380729112053 191.26089100126612 2 86.916928412490748 193.52362874628662 2 11.324983002783471 194.09063744505858 2 182.81662046052031 191.60325084618677 2 90.871247801323221 9.4364535985910418 2 117.50004580197995 16.626721044010651 2 69.159550822945675 13.772366192969288 2 15.421613427921281 13.087207034553659 2 13.898205837008655 18.271835366804972 2 62.023656016156423 29.393123250276687 2 111.83215994922993 22.013989143282004 2 137.83183763860868 31.845379009810671 2 32.465610445207354 25.335234769823721 2 181.51404394624151 40.278394035358964 2 189.54980236105405 30.037904403961765 2 116.59297949875206 34.152720193385498 2 67.353130148622597 43.889445932733452 2 140.77157098028846 44.150512886213129 2 33.139479108568359 33.416455387064431 2 14.392994623845993 51.015781038394231 2 159.7205310317436 47.137865454693916 2 191.71792916557942 47.731353791352298 2 24.286521500668552 63.19641891646004 2 95.288718764290508 54.114385657746524 2 87.351152907065853 67.565385658227299 2 192.28299445329412 63.531083835113328 2 84.724107184613374 72.756883238717464 2 103.67094251961618 69.753575687305954 2 180.50344495151705 68.374160472321748 2 144.77768892474231 69.098368497764312 2 130.18062952359077 82.260808507382151 2 79.678135124757802 95.585550666369002 2 86.018107827131587 91.185258330187722 2 177.97060258619479 88.678727956036113 2 69.125561161940553 93.847176061351149 2 185.3812463742631 98.718653631445036 2 7.4332253484674347 89.013325450189953 2 190.95284232687345 99.705127936590713 2 69.686892051173359 113.30809975847994 2 130.59737683671634 110.66871950267753 2 159.3329171635485 104.68727965557679 2 2.8290979429048795 104.77251936658639 2 186.31855895282146 118.9654988932063 2 141.52221395115424 121.21988701656508 2 176.8579673948426 124.87337897343261 2 37.035368443184105 125.76197261451776 2 57.449595835677904 127.33329822364745 2 77.562540135328149 123.10547541388894 2 28.995202696427903 139.96205364150475 2 145.10928875889635 128.62038408578104 2 18.571075950233151 143.06398534718127 2 2.8290979429048795 139.75974430099572 2 35.215496716897384 135.98191178878909 2 190.3734295570884 142.09343227436696 2 8.2027553909815829 143.60954189093113 2 136.73954867510724 143.77767839639884 2 172.28768955236646 148.39130264135389 2 197.17090205709513 158.0777310381832 2 15.414497694527981 152.25716498610564 2 163.25869229586837 153.36995528863059 2 34.490652331687023 157.71504115705366 2 154.9751643750615 148.15007404916835 2 4.271767283421128 154.17764852219088 2 127.95253470426005 157.31542997063622 2 40.126103093000559 157.26761760662779 2 44.009854284486991 152.10713647911484 2 147.44754681255961 156.31075115819908 2 98.138817798524684 158.5019096781231 2 163.50445919267841 172.43890099109959 2 97.614683406516733 181.41453516219505 2 197.15236641409552 173.63427581794983 2 175.79981259718627 176.37580232952374 2 103.16093135248045 185.08846902152337 2 159.5500850224573 182.31202259196314 2 197.17090205709513 184.15922143245552 2 82.652844274905149 189.31437547996018 2 18.586735790408238 186.81060211574456 2 183.23948239430922 197.17090205709513 2 </DataArray>