<?xml version="1.0" ?>
<VTKFile byte_order="LittleEndian" type="UnstructuredGrid" version="0.1">
<UnstructuredGrid>
<Piece NumberOfCells="0" NumberOfPoints="177">
<Points>
<DataArray NumberOfComponents="3" format="ascii" type="Float32">0 0 0 174.51939699248763 7.8977370934926459 3.0 111.49101273530231 167.23132825584545 3.0 9.5891701279067512 184.99837573986065 3.0 116.72188103315911 30.42922837339551 2 60.628318659205789 34.862982861287236 2 26.636236945926644 41.092572919751603 2 110.20254403803233 79.016711040312188 2 107.71583711615787 92.990771236307722 2 108.25885805170891 20.560945655072167 2 25.161759688973195 22.72462216300806 2 124.97756295671515 18.93810334315188 2 126.41069719954656 23.669909429838203 2 138.38567592397109 49.301314150315378 2 179.44779226085282 67.72175739300026 2 30.755870148272329 84.629172053842993 2 151.23457158681501 84.043505968453928 2 183.48429893853097 112.66883379995129 2 116.21441447652877 122.14735474715707 2 12.985794113684339 144.48318298762183 2 133.30556177980142 158.54418026547324 2 40.61822379068024 146.72116635534223 2 66.430746713739566 172.48328333454938 2 117.74300219741073 36.916448136566139 2 162.49349305829512 107.30078947105198 2 111.99054348450777 103.51293840484648 2 178.71066056917931 123.58394395837331 2 167.36127015057505 146.33704917378049 2 94.788696046109592 147.74780200070947 2 127.90059874139752 161.96484142693211 2 51.541395980783783 153.75094081230822 2 136.65587993709119 187.21461094645991 2 68.486341586159739 14.871174686165951 2 81.942175166377183 11.70891724007322 2 37.641666577916119 6.6608044914536002 2 118.43407051852081 10.685713155409093 2 116.69650867497265 24.28630400323026 2 130.80873781408778 32.040306732123732 2 20.139329650800697 41.395629297638308 2 94.356940111908656 47.167588474150143 2 160.20282862947451 71.303514736479926 2 63.791251941248994 123.61954062401192 2 83.813606043461562 135.16287664612855 2 9.9944983337597204 138.50920055120545 2 157.8839442569473 157.53120439573161 2 39.599470182390633 159.56046234432415 2 144.96681257949936 161.98199902937748 2 108.59964177321723 173.21000195263676 2 71.955585624258646 179.16210451738942 2 89.998040615514924 22.34429669666919 2 183.4818030333829 80.766783823537622 2 168.99839925799762 114.63686512760158 2 114.94596940616087 112.60185497655414 2 143.69579365119222 130.87263256317371 2 166.70312292504991 166.45543678171509 2 125.70659744623094 175.26548811126136 2 64.165382062677963 191.54527203651992 2 43.083035712212293 175.88069758387846 2 152.19209236870626 11.463585394775151 2 196.7476331403528 11.177200534740642 2 32.91852249288452 13.500773977338905 2 100.59461355295936 26.391846528779322 2 184.11052517923989 107.10187331166648 2 59.390896425966609 113.27548447921666 2 86.626688588031215 145.0948336277882 2 103.66189971123364 160.90152520122857 2 134.08503524786315 168.61193132093811 2 181.9647845823657 165.41431416308171 2 41.672182519763126 192.81260432815867 2 137.44868817136231 196.75 2 129.48689469638103 3.2500000000000004 2 87.419591293981227 34.341455079596187 2 37.962604599135616 69.106404834101411 2 40.315764130775605 118.63474128490168 2 56.823198429986114 173.63115774852676 2 157.98048048927194 12.354789485928604 2 117.88736886686024 14.721795889834446 2 103.86801269928581 19.434731761479672 2 34.028830649921389 21.624433961378465 2 63.727515423376111 24.506719623558578 2 124.35159637835064 27.514296158571039 2 14.235077493756704 40.53046780580209 2 95.834570433891258 42.988066091516508 2 130.60554395568079 43.049968853092587 2 65.876053034842101 49.781885328285696 2 78.305983208348465 58.772331945631493 2 98.112888902156953 79.097530964946813 2 36.610976536278237 74.92796388537792 2 50.14259468508974 74.821072105773311 2 192.63226519616506 97.255075543882725 2 107.70031045730467 99.688903163376239 2 189.08112495344935 104.93965420933347 2 192.81095239620626 115.7109376598099 2 123.62654786013395 155.11594270343724 2 140.03807429012861 159.07157174603856 2 124.9237203717601 166.10588299682792 2 35.896202173560489 155.1839990304116 2 104.23525042259996 170.07118487404864 2 197.15 171.90941082914534 2 111.34164689567017 185.1008073432107 2 167.8866115868658 10.222230725471649 2 85.06756832960879 15.235513348032978 2 139.4504381801658 4.6506845035804822 2 27.819053413692394 27.171602356764755 2 79.569711539524604 38.658519004958492 2 82.853511279592738 56.317991025609423 2 55.349687026613019 94.204459852426979 2 166.29983793243116 93.010952919219463 2 44.667998275423791 115.25508291537979 2 186.40861258694943 128.54348187707342 2 116.28865220940587 127.00634297435947 2 135.51804169532315 128.59147891533505 2 192.91581631173463 135.73643992017952 2 119.93512112666254 135.25061271597502 2 103.80851233160884 150.71595581214697 2 47.427479252087977 156.87675751984526 2 166.39358640372669 161.0228552267771 2 31.878578282572061 175.16173739654292 2 73.383135310512088 15.037440781047639 2 92.500765696054671 26.385271827074444 2 17.793789328168433 29.415700436904022 2 52.703395256743384 90.380475495169932 2 6.2719720834487314 94.591008110068827 2 127.07324266641642 103.05329141076621 2 173.46912944435039 110.88726247488151 2 17.493843177830524 105.32074748746238 2 53.620703709388295 106.28362260193816 2 153.03036565025971 131.97999234604092 2 178.6981554467624 146.84191785923755 2 186.91030189823755 162.90852365384404 2 76.982748035081414 191.40170736113186 2 11.725419454785575 5.6429724998065174 2 101.75039708145843 2.85 2 48.841908814959751 41.616586873696889 2 92.30938822512654 36.938932046486677 2 57.208614243768622 51.435316028051098 2 39.940632108848042 63.849156348732961 2 89.637693794352543 54.113436083492843 2 184.74375223317779 102.17237215323499 2 10.785896642956597 109.43520774543877 2 39.501519397244785 114.09724085670136 2 76.206198246203172 124.11848655164236 2 121.57291305470012 123.3566248072521 2 130.95239953960794 128.97404651960147 2 76.231354373120382 182.09882748140132 2 163.82484221884852 6.8952869280744205 2 183.72332701704798 19.828155371649725 2 110.92594899752139 17.288448225421035 2 141.51938848957582 83.637969623310639 2 161.5334227869557 148.26259267913085 2 110.41036972817069 148.56264741494687 2 193.37875645607312 167.5137012987214 2 57.158007164242491 41.222483810485421 2 110.99399429516139 50.443335351401785 2 132.4275484723905 76.805014686136559 2 99.756633118339209 69.962276368849899 2 137.35605204022258 80.149646889826542 2 3.6612173228126839 65.12047882792929 2 48.688098400515479 99.679171546472531 2 53.576843218512344 120.48839991706093 2 195.61022576830604 140.78912883246579 2 111.69258185989879 143.96301293708814 2 124.88457661311188 180.45206206998861 2 129.89631402568054 17.163945221375382 2 104.36073222186396 71.980415734735047 2 176.39023655231028 87.847176319033636 2 17.734761678374703 135.28069362116011 2 101.66035876178742 165.54932327230546 2 18.589929325369258 14.612511683270148 2 78.315810522630954 88.364850948234704 2 31.954992844950866 98.317024584032765 2 172.29746993245013 132.47468786810555 2 124.51321457100967 145.13877307320607 2 132.62484002273359 164.34457920691256 2 91.042873918878641 167.32985295842835 2 32.242854046117387 183.26411371817954 2 116.23534360183035 180.14624847143912 2 </DataArray>
</Points>
<Cells>
<DataArray Name="connectivity" format="ascii" type="Int32">0</DataArray>
<DataArray Name="offsets" format="ascii" type="Int32">0</DataArray>
<DataArray Name="types" format="ascii" type="UInt8">1</DataArray>
</Cells>
<PointData>
<DataArray Name="Points" NumberOfComponents="3" format="ascii" type="Float32">0 0 0 174.51939699248763 7.8977370934926459 3.0 111.49101273530231 167.23132825584545 3.0 9.5891701279067512 184.99837573986065 3.0 116.72188103315911 30.42922837339551 2 60.628318659205789 34.862982861287236 2 26.636236945926644 41.092572919751603 2 110.20254403803233 79.016711040312188 2 107.71583711615787 92.990771236307722 2 108.25885805170891 20.560945655072167 2 25.161759688973195 22.72462216300806 2 124.97756295671515 18.93810334315188 2 126.41069719954656 23.669909429838203 2 138.38567592397109 49.301314150315378 2 179.44779226085282 67.72175739300026 2 30.755870148272329 84.629172053842993 2 151.23457158681501 84.043505968453928 2 183.48429893853097 112.66883379995129 2 116.21441447652877 122.14735474715707 2 12.985794113684339 144.48318298762183 2 133.30556177980142 158.54418026547324 2 40.61822379068024 146.72116635534223 2 66.430746713739566 172.48328333454938 2 117.74300219741073 36.916448136566139 2 162.49349305829512 107.30078947105198 2 111.99054348450777 103.51293840484648 2 178.71066056917931 123.58394395837331 2 167.36127015057505 146.33704917378049 2 94.788696046109592 147.74780200070947 2 127.90059874139752 161.96484142693211 2 51.541395980783783 153.75094081230822 2 136.65587993709119 187.21461094645991 2 68.486341586159739 14.871174686165951 2 81.942175166377183 11.70891724007322 2 37.641666577916119 6.6608044914536002 2 118.43407051852081 10.685713155409093 2 116.69650867497265 24.28630400323026 2 130.80873781408778 32.040306732123732 2 20.139329650800697 41.395629297638308 2 94.356940111908656 47.167588474150143 2 160.20282862947451 71.303514736479926 2 63.791251941248994 123.61954062401192 2 83.813606043461562 135.16287664612855 2 9.9944983337597204 138.50920055120545 2 157.8839442569473 157.53120439573161 2 39.599470182390633 159.56046234432415 2 144.96681257949936 161.98199902937748 2 108.59964177321723 173.21000195263676 2 71.955585624258646 179.16210451738942 2 89.998040615514924 22.34429669666919 2 183.4818030333829 80.766783823537622 2 168.99839925799762 114.63686512760158 2 114.94596940616087 112.60185497655414 2 143.69579365119222 130.87263256317371 2 166.70312292504991 166.45543678171509 2 125.70659744623094 175.26548811126136 2 64.165382062677963 191.54527203651992 2 43.083035712212293 175.88069758387846 2 152.19209236870626 11.463585394775151 2 196.7476331403528 11.177200534740642 2 32.91852249288452 13.500773977338905 2 100.59461355295936 26.391846528779322 2 184.11052517923989 107.10187331166648 2 59.390896425966609 113.27548447921666 2 86.626688588031215 145.0948336277882 2 103.66189971123364 160.90152520122857 2 134.08503524786315 168.61193132093811 2 181.9647845823657 165.41431416308171 2 41.672182519763126 192.81260432815867 2 137.44868817136231 196.75 2 129.48689469638103 3.2500000000000004 2 87.419591293981227 34.341455079596187 2 37.962604599135616 69.106404834101411 2 40.315764130775605 118.63474128490168 2 56.823198429986114 173.63115774852676 2 157.98048048927194 12.354789485928604 2 117.88736886686024 14.721795889834446 2 103.86801269928581 19.434731761479672 2 34.028830649921389 21.624433961378465 2 63.727515423376111 24.506719623558578 2 124.35159637835064 27.514296158571039 2 14.235077493756704 40.53046780580209 2 95.834570433891258 42.988066091516508 2 130.60554395568079 43.049968853092587 2 65.876053034842101 49.781885328285696 2 78.305983208348465 58.772331945631493 2 98.112888902156953 79.097530964946813 2 36.610976536278237 74.92796388537792 2 50.14259468508974 74.821072105773311 2 192.63226519616506 97.255075543882725 2 107.70031045730467 99.688903163376239 2 189.08112495344935 104.93965420933347 2 192.81095239620626 115.7109376598099 2 123.62654786013395 155.11594270343724 2 140.03807429012861 159.07157174603856 2 124.9237203717601 166.10588299682792 2 35.896202173560489 155.1839990304116 2 104.23525042259996 170.07118487404864 2 197.15 171.90941082914534 2 111.34164689567017 185.1008073432107 2 167.8866115868658 10.222230725471649 2 85.06756832960879 15.235513348032978 2 139.4504381801658 4.6506845035804822 2 27.819053413692394 27.171602356764755 2 79.569711539524604 38.658519004958492 2 82.853511279592738 56.317991025609423 2 55.349687026613019 94.204459852426979 2 166.29983793243116 93.010952919219463 2 44.667998275423791 115.25508291537979 2 186.40861258694943 128.54348187707342 2 116.28865220940587 127.00634297435947 2 135.51804169532315 128.59147891533505 2 192.91581631173463 135.73643992017952 2 119.93512112666254 135.25061271597502 2 103.80851233160884 150.71595581214697 2 47.427479252087977 156.87675751984526 2 166.39358640372669 161.0228552267771 2 31.878578282572061 175.16173739654292 2 73.383135310512088 15.037440781047639 2 92.500765696054671 26.385271827074444 2 17.793789328168433 29.415700436904022 2 52.703395256743384 90.380475495169932 2 6.2719720834487314 94.591008110068827 2 127.07324266641642 103.05329141076621 2 173.46912944435039 110.88726247488151 2 17.493843177830524 105.32074748746238 2 53.620703709388295 106.28362260193816 2 153.03036565025971 131.97999234604092 2 178.6981554467624 146.84191785923755 2 186.91030189823755 162.90852365384404 2 76.982748035081414 191.40170736113186 2 11.725419454785575 5.6429724998065174 2 101.75039708145843 2.85 2 48.841908814959751 41.616586873696889 2 92.30938822512654 36.938932046486677 2 57.208614243768622 51.435316028051098 2 39.940632108848042 63.849156348732961 2 89.637693794352543 54.113436083492843 2 184.74375223317779 102.17237215323499 2 10.785896642956597 109.43520774543877 2 39.501519397244785 114.09724085670136 2 76.206198246203172 124.11848655164236 2 121.57291305470012 123.3566248072521 2 130.95239953960794 128.97404651960147 2 76.231354373120382 182.09882748140132 2 163.82484221884852 6.8952869280744205 2 183.72332701704798 19.828155371649725 2 110.92594899752139 17.288448225421035 2 141.51938848957582 83.637969623310639 2 161.5334227869557 148.26259267913085 2 110.41036972817069 148.56264741494687 2 193.37875645607312 167.5137012987214 2 57.158007164242491 41.222483810485421 2 110.99399429516139 50.443335351401785 2 132.4275484723905 76.805014686136559 2 99.756633118339209 69.962276368849899 2 137.35605204022258 80.149646889826542 2 3.6612173228126839 65.12047882792929 2 48.688098400515479 99.679171546472531 2 53.576843218512344 120.48839991706093 2 195.61022576830604 140.78912883246579 2 111.69258185989879 143.96301293708814 2 124.88457661311188 180.45206206998861 2 129.89631402568054 17.163945221375382 2 104.36073222186396 71.980415734735047 2 176.39023655231028 87.847176319033636 2 17.734761678374703 135.28069362116011 2 101.66035876178742 165.54932327230546 2 18.589929325369258 14.612511683270148 2 78.315810522630954 88.364850948234704 2 31.954992844950866 98.317024584032765 2 172.29746993245013 132.47468786810555 2 124.51321457100967 145.13877307320607 2 132.62484002273359 164.34457920691256 2 91.042873918878641 167.32985295842835 2 32.242854046117387 183.26411371817954 2 116.23534360183035 180.14624847143912 2 </DataArray>
<DataArray Name="forces" NumberOfComponents="3" format="ascii" type="Float32">0 0 0 0.10826188158336403 0.31499860166445592 0.0 -0.0081484094232250337 0.33425819259542816 0.0 0.0 0.0 0.0 0.030599850994654565 0.23829089443964602 0.0 -0.016256713368380513 0.23994814986144097 0.0 -0.0798095937329803 0.32463876574727119 0.0 -0.27881578539536789 0.45974530391826068 0.0 -0.45085512203079237 -0.35128386402952766 0.0 -0.047999570182015727 0.067624064573050369 0.0 -0.28099187456945274 0.1490429379411905 0.0 0.018970044064322622 0.057931367676925472 0.0 -0.01972180490731823 0.10743336480942671 0.0 0.069659554268757334 0.13157272427041922 0.0 -0.029039594209437802 0.035440796721002824 0.0 -0.2317500768537355 0.30494266239201029 0.0 -0.093000535604147783 0.3714302308100943 0.0 -0.15218326606916766 0.01522316778863142 0.0 -0.025138485045664162 -0.0052004951869311089 0.0 0.060841547446736116 0.33120750786769054 0.0 -0.23134692374835744 0.10197283696589399 0.0 -0.5454071087880098 -0.29790654399292721 0.0 0.00020714419477684681 0.21997978147049579 0.0 0.12137359142550952 0.11799880998264367 0.0 0.019350758041030064 -0.14129531717062568 0.0 -0.12120819456919807 -0.31753454226532618 0.0 -0.19148241671257571 0.22583402884342857 0.0 0.27139782523609357 0.1807902748548571 0.0 -0.024527626136840369 0.095137813026303086 0.0 -0.0032503974865139007 0.18423472266888818 0.0 -0.038937239681824609 -0.23266472528654605 0.0 0.021367671720553316 0.44661588435831412 0.0 -0.04079530482986099 0.090779923570852517 0.0 -0.063054150076571447 0.18920569450330649 0.0 -0.11550276394861646 0.10297826156561372 0.0 0.01278379970672755 0.011648751200132201 0.0 -0.017495328649722142 0.027905452818506871 0.0 0.077841648624863202 0.0010645291148356772 0.0 -0.082704564784679829 -0.060068336988703994 0.0 0.043573762578110409 0.047867612829739975 0.0 -0.063414322477509888 0.1323410069477321 0.0 0.26340593553259273 -0.17170243403220653 0.0 -0.19386861517448989 -0.12197376886082156 0.0 0.19002809663884951 0.16755333230576885 0.0 0.19453416588904882 -0.031369352115256044 0.0 -0.25425714063579563 -0.16217840276101422 0.0 0.056207274543323249 0.048081248063707838 0.0 -0.0916076299546459 0.082496621360244826 0.0 0.1383600235097856 0.17422885785008868 0.0 -0.059709989232809596 -0.057815689202515008 0.0 0.29523322156615717 0.2197755744952834 0.0 -0.13698124151856739 0.078248319177060183 0.0 -0.097595443076731805 -0.11531414163096765 0.0 0.093086572464211814 0.052268230694252016 0.0 0.15767780146449317 0.043471328642520568 0.0 -0.079003151640722136 0.15355082559565181 0.0 0.10440579635431482 0.26653948271882211 0.0 -0.23875932618926179 -0.053907141229405875 0.0 -0.031620845052754823 -0.086231360842494748 0.0 0.38325868942016317 0.050028707776103243 0.0 -0.13869402277220982 0.15756730222295084 0.0 0.031523337971226528 0.067606614485762551 0.0 -0.06218813808387269 -0.084368677249002377 0.0 -0.099679192171283071 0.18096316858268824 0.0 -0.062649104667815481 0.074774913451212371 0.0 -0.020888351506505642 0.23005760495978178 0.0 -0.036085689547829425 0.1363352553135635 0.0 -0.25671106056810078 -0.23785587298473809 0.0 0.084703579929117367 0.32864908511584301 0.0 0.10010834041618555 1.3307392082500211 0.0 0.0092893264721198854 -2.2343604686036125 0.0 -0.0308350536211075 0.088974555605278283 0.0 -0.0070735038053578725 0.013963547108035157 0.0 0.030760530987658963 0.23316341577915936 0.0 -0.038828864694576359 0.14119246197806484 0.0 0.041483669479950108 0.040925835473207196 0.0 0.033275179276179179 0.060934347575937742 0.0 -0.090285996584735795 -0.094912591631052812 0.0 -0.040519721313066664 0.0095223957180801122 0.0 -0.02784130874225732 0.11819209223595228 0.0 -0.076108744844506748 0.040309511056959457 0.0 -0.032000912934828318 -0.071386289842311906 0.0 -0.073248191691418163 -0.014729567851241576 0.0 -0.11259182589491668 0.17383814928933339 0.0 -0.21278157894933472 0.023865333307352465 0.0 0.011993134316044006 0.014631785826948254 0.0 0.2702004642092759 0.21013232585026287 0.0 -0.05154062350883859 -0.035986081675343257 0.0 -0.027717716956481175 -0.3056869333263178 0.0 0.11791464440277988 -0.18668090305562141 0.0 -0.13616100034353829 -0.44883021736404588 0.0 -0.025334696214086627 -0.15143461508900041 0.0 -0.016234595001196186 0.063140499377549508 0.0 -0.00055955476379043745 0.10314393994123627 0.0 0.065898175180890389 0.13446997801201233 0.0 0.022281964526768866 -0.052569056128339842 0.0 -0.18719064938839652 -0.24011958205467462 0.0 -0.046487662859423767 0.18056644174543229 0.0 1.4507270033534216 -0.10940054793435881 0.0 -0.15869331809465342 0.20136778938929129 0.0 0.069051041487213305 0.056865457828893407 0.0 -0.0080769583862398547 -0.058118570414223913 0.0 0.068765461135108952 -0.1794978967135612 0.0 -0.23963983566934555 0.12226181437716546 0.0 -0.10096103340900567 0.016244213425937515 0.0 -0.079296228889609466 0.062658135588032793 0.0 -0.040070629971363958 0.064658644359856576 0.0 -0.4172114413066374 0.4205575433127296 0.0 -0.10443506787993562 -0.16945162336252917 0.0 -0.11752979660650301 0.16158196510772099 0.0 0.049903522972110093 0.0013374812053934815 0.0 0.083629579943420129 -0.12347840909912289 0.0 0.023518465549046214 0.33723522496421932 0.0 0.12988818696292315 -0.029342155434817996 0.0 -0.035016786337909167 0.14992943777635825 0.0 -0.010826433159911809 -0.21491442015653095 0.0 0.28569743882281406 0.037802753120880883 0.0 -0.2690585722162141 0.0110198047216888 0.0 -0.062497207691681766 -0.052310632291785453 0.0 -0.010370162972749952 -0.057180191102313926 0.0 -0.19403005193503708 -0.02058243434729079 0.0 -0.1566967218418629 0.03667424829194138 0.0 0.10595457562940197 0.049802925143289656 0.0 0.080997978132882342 -0.014486457039393441 0.0 -0.20083967047194298 -0.026042972363847339 0.0 0.1044464241686418 -0.068232667370722866 0.0 0.08842617038676559 -0.03283961291030324 0.0 0.41683553989173128 -0.21179322125059202 0.0 -0.15706573629745629 -0.005748627286145315 0.0 -0.034560835885555044 -0.13710188579393182 0.0 0.064581702754501036 0.39345693257428183 0.0 -0.26871179499592457 0.054029652980418397 0.0 0.052908410715364229 -2.0898995742719326 0.0 -0.17366286604352341 0.14439646765546213 0.0 0.024355941989588029 0.092068566137114116 0.0 -0.20509610682269491 0.11780246966341548 0.0 -0.14149192715917436 -0.088122164157798666 0.0 0.059947754491376709 0.056090433129683981 0.0 -0.06301808153623889 -0.17820789288729932 0.0 0.11214756594105801 -0.06389484752897924 0.0 -0.22070254998650993 0.26056366301389078 0.0 -0.15153861033223526 -0.046970250640842814 0.0 -0.014612324151864642 -0.068047653907889361 0.0 0.10961621391448845 0.0070376214068201826 0.0 0.086357980348881647 0.1825638030142509 0.0 0.082147537715400426 0.013745445213648066 0.0 0.038488256577580843 0.10315533692999052 0.0 -0.015149530291276081 -0.031279931177728759 0.0 -0.010358270849458256 0.18263303528413272 0.0 0.27820253543664691 -0.049689956780184522 0.0 0.0030508442329583996 -0.006702628546735534 0.0 0.011749343479328878 -0.26622561785632815 0.0 -0.067546853572282572 0.30849419813275702 0.0 -0.10191785796831082 0.15196122917500748 0.0 0.57728169754144054 0.16827102059504473 0.0 0.11373631912430238 0.0081565142690588899 0.0 0.007739775354204198 0.11214746136705472 0.0 0.087733056066058801 -0.12589252624974184 0.0 0.012391940335868767 -0.068731178655755149 0.0 -0.013213107026983745 0.079130888850807213 0.0 0.16782404852759369 0.40720587875895031 0.0 0.12721353874380742 0.088915251244643514 0.0 -0.10630169190573656 0.12868676816680821 0.0 -0.024504242017884259 0.067619930846054332 0.0 0.10257684640774234 0.056236227797561877 0.0 -0.066870837586891552 0.032422083354165757 0.0 0.17995540267070587 0.14131518373349247 0.0 -0.12525840330679716 0.25702511072811007 0.0 -0.24363112916853175 0.14351550149659048 0.0 0.061475498339962797 0.050607706678326259 0.0 -0.13987700198630104 0.0088851573186985444 0.0 -0.20378678816573492 -0.14861065299769108 0.0 -0.0059722607518433168 -0.020997479346460457 0.0 0.10659234539765701 0.08314482754954039 0.0 0.067519769040153887 0.19947887875560522 0.0 -0.21905941831479869 0.066825225222184481 0.0 -0.23949753887800218 0.16253534843276912 0.0 </DataArray>
<DataArray Name="radii" format="ascii" type="Float32">0 4.35 4.35 4.35 4.050000000000001 4.050000000000001 4.050000000000001 4.050000000000001 4.050000000000001 3.650000000000001 3.650000000000001 3.650000000000001 3.650000000000001 3.650000000000001 3.650000000000001 3.650000000000001 3.650000000000001 3.650000000000001 3.650000000000001 3.650000000000001 3.650000000000001 3.650000000000001 3.650000000000001 3.650000000000001 3.650000000000001 3.650000000000001 3.650000000000001 3.650000000000001 3.650000000000001 3.650000000000001 3.650000000000001 3.650000000000001 3.2500000000000004 3.2500000000000004 3.2500000000000004 3.2500000000000004 3.2500000000000004 3.2500000000000004 3.2500000000000004 3.2500000000000004 3.2500000000000004 3.2500000000000004 3.2500000000000004 3.2500000000000004 3.2500000000000004 3.2500000000000004 3.2500000000000004 3.2500000000000004 3.2500000000000004 3.2500000000000004 3.2500000000000004 3.2500000000000004 3.2500000000000004 3.2500000000000004 3.2500000000000004 3.2500000000000004 3.2500000000000004 3.2500000000000004 3.2500000000000004 3.2500000000000004 3.2500000000000004 3.2500000000000004 3.2500000000000004 3.2500000000000004 3.2500000000000004 3.2500000000000004 3.2500000000000004 3.2500000000000004 3.2500000000000004 3.2500000000000004 3.2500000000000004 3.2500000000000004 3.2500000000000004 3.2500000000000004 3.2500000000000004 2.85 2.85 2.85 2.85 2.85 2.85 2.85 2.85 2.85 2.85 2.85 2.85 2.85 2.85 2.85 2.85 2.85 2.85 2.85 2.85 2.85 2.85 2.85 2.85 2.85 2.85 2.85 2.85 2.85 2.85 2.85 2.85 2.85 2.85 2.85 2.85 2.85 2.85 2.85 2.85 2.85 2.85 2.85 2.85 2.85 2.85 2.85 2.85 2.85 2.85 2.85 2.85 2.85 2.85 2.85 2.85 2.85 2.85 2.85 2.85 2.85 2.85 2.85 2.85 2.85 2.85 2.85 2.85 2.85 2.85 2.85 2.85 2.85 2.85 2.85 2.85 2.85 2.85 2.85 2.85 2.85 2.85 2.85 2.85 2.85 2.85 2.85 2.85 2.85 2.85 2.85 2.85 2.85 2.85 2.85 2.85 2.85 2.85 2.85 2.85 2.85 2.85 </DataArray>
</PointData>
<CellData/>
</Piece>
</UnstructuredGrid>
</VTKFile>
