<?xml version="1.0" ?>
<VTKFile byte_order="LittleEndian" type="UnstructuredGrid" version="0.1">
<UnstructuredGrid>
<Piece NumberOfCells="0" NumberOfPoints="18">
<Points>
<DataArray NumberOfComponents="3" format="ascii" type="Float32">0 0 0 180.06464125274201 83.610157177834353 3.0 31.924847123357189 145.31184709994702 3.0 41.315963534856451 142.68509499154447 2.5 191.07721158149684 147.3546605341291 2.5 193.43212063248154 178.3583604719577 2.5 25.66113688185883 184.45612429261411 2.5 23.377426935106055 5.2711772263434709 2 40.093493843508917 131.32890298418025 2.5 45.119449815385437 147.12575262101456 2 193.22351355549608 152.71392570888202 2 37.61299486386126 152.00512842748969 2 24.821020961474886 190.07165679099447 2 178.05689277776582 78.375109587127412 2 175.37008372714811 154.85311548351407 2 181.4331244666329 178.14440017675591 2.5 96.472442302320232 62.167020133545442 2.5 187.87460974519951 180.30543708075101 2 </DataArray>
</Points>
<Cells>
<DataArray Name="connectivity" format="ascii" type="Int32">0</DataArray>
<DataArray Name="offsets" format="ascii" type="Int32">0</DataArray>
<DataArray Name="types" format="ascii" type="UInt8">1</DataArray>
</Cells>
<PointData>
<DataArray Name="Points" NumberOfComponents="3" format="ascii" type="Float32">0 0 0 180.06464125274201 83.610157177834353 3.0 31.924847123357189 145.31184709994702 3.0 41.315963534856451 142.68509499154447 2.5 191.07721158149684 147.3546605341291 2.5 193.43212063248154 178.3583604719577 2.5 25.66113688185883 184.45612429261411 2.5 23.377426935106055 5.2711772263434709 2 40.093493843508917 131.32890298418025 2.5 45.119449815385437 147.12575262101456 2 193.22351355549608 152.71392570888202 2 37.61299486386126 152.00512842748969 2 24.821020961474886 190.07165679099447 2 178.05689277776582 78.375109587127412 2 175.37008372714811 154.85311548351407 2 181.4331244666329 178.14440017675591 2.5 96.472442302320232 62.167020133545442 2.5 187.87460974519951 180.30543708075101 2 </DataArray>
<DataArray Name="forces" NumberOfComponents="3" format="ascii" type="Float32">0 0 0 0.0035223531007149496 -0.0007275696724536743 0.0 -0.010914302006239916 0.012100356221613436 0.0 0.019360397638541173 0.026483095854204809 0.0 0.00023088552472999051 0.0016609733947497748 0.0 0.0012342163661205052 -0.044068755837501056 0.0 0.0 0.0 0.0 0.026595666330940217 -0.011760357629481154 0.0 -0.019437579345762478 0.030304652782240038 0.0 -0.059089011873004131 -0.0044646501645379498 0.0 0.064394808450117524 -0.021780372365639317 0.0 0.003082180074240967 0.046007632269509491 0.0 0.0 0.0 0.0 -0.0007096449809983682 0.0012775132229492429 0.0 0.0045584140458240774 -0.0015191560680082408 0.0 0.023538464503371832 -0.01442385764571761 0.0 0.0063251335552532151 -0.014340804885495172 0.0 -0.045098171900991371 0.046129231947345389 0.0 </DataArray>
<DataArray Name="radii" format="ascii" type="Float32">0 2.85 2.85 2.95 2.85 2.95 2.85 2.75 2.95 2.95 2.85 2.95 2.85 2.85 2.85 2.95 2.95 2.95 </DataArray>
</PointData>
<CellData/>
</Piece>
</UnstructuredGrid>
</VTKFile>
