<?xml version="1.0" ?>
<VTKFile byte_order="LittleEndian" type="UnstructuredGrid" version="0.1">
<UnstructuredGrid>
<Piece NumberOfCells="0" NumberOfPoints="138">
<Points>
<DataArray NumberOfComponents="3" format="ascii" type="Float32">19.204070122283134 6.5544008948929022 3.0 10.906328672846362 4.6967000198693558 3.0 52.05449215150378 7.206683906294681 3.0 99.778488737433307 4.2657445464913923 3.0 161.08765763990948 6.8203746201449613 3.0 26.00049235175986 12.79845787826163 3.0 187.61502196307433 10.563382657421764 3.0 170.67168584897476 19.057659995967263 3.0 179.69530093334748 20.266837114470089 3.0 71.536335458267899 19.617826898810485 3.0 96.288474835073558 20.4256497646635 3.0 139.34038765366034 21.678087446352286 3.0 89.358269818169376 29.555815548782153 3.0 97.084143600825826 34.200697914552926 3.0 19.734973545661575 36.30576974887461 3.0 50.34850346822158 40.071915859897437 3.0 101.52409107122055 43.635285613569543 3.0 61.738616247271807 48.427152641449588 3.0 10.285729382983977 55.324713229631989 3.0 41.229298002898062 60.460788519625602 3.0 131.81212694214707 62.310659870861571 3.0 66.131435332964855 64.922119011552923 3.0 93.783403357085163 65.01244794478383 3.0 136.8530394633662 69.846722350763415 3.0 44.559745572261754 69.226090873355361 3.0 38.540792805365221 71.535821264362653 3.0 20.20595486468202 76.218956758371931 3.0 182.74849260523908 75.330457986436727 3.0 7.2171006212319613 82.546147628170004 3.0 116.23095767680086 83.214897816747722 3.0 176.78816098012504 86.215100888438684 3.0 45.638590566513173 91.943999325281254 3.0 60.983520993747995 99.655261998170687 3.0 46.131867803522432 99.111248977300633 3.0 82.968441839190106 116.23423753806772 3.0 106.82987035711736 117.97221487327612 3.0 127.51718065659996 124.1326995200578 3.0 109.68580371848513 125.27775918882377 3.0 137.72350171932902 125.71571087400226 3.0 13.236362740090621 131.4458249629686 3.0 42.375972769656116 132.57547426484592 3.0 106.74421048701234 131.65670385351319 3.0 97.960167287197621 135.83913886677738 3.0 160.02291006551243 140.77257398690469 3.0 111.17638175792409 140.03962113649339 3.0 184.27865894985618 140.39821913420204 3.0 77.713361370085053 142.32212689807886 3.0 67.109327421572999 142.83905426333638 3.0 35.733189737100247 148.36734663626342 3.0 53.277713035930411 150.34683216255181 3.0 130.64449380856439 151.72520002952399 3.0 61.513294791642807 152.06350089843363 3.0 188.24118979620965 154.27882805530021 3.0 70.47573227517843 154.85124049356924 3.0 104.01145031210646 153.9323701352333 3.0 180.80234938699792 160.97350488632043 3.0 80.675831796723429 166.54674143925754 3.0 130.04133989382359 165.90187049760036 3.0 117.16268870498061 166.79531534593244 3.0 22.283542562898436 169.33086663335069 3.0 190.94280988668669 170.17135778800744 3.0 13.515746259691724 175.13328665561642 3.0 34.747716941438142 172.53144469218603 3.0 70.536600740946113 172.58906972489123 3.0 55.78781882527835 175.75856540752349 3.0 185.90389656859338 178.89851152342882 3.0 36.681177261818007 193.05223606439782 3.0 24.058814061823615 195.59192858755878 3.0 131.27935184214573 192.19201486034842 3.0 15.720052488335064 2.6604716305380003 2 5.6783733272150609 4.7267176558815569 2 54.630169931347098 2.6604716305380003 2 104.46141610940042 6.5870847556234704 2 157.92709254217274 2.6604716305380003 2 29.832320897162781 9.2438103378875471 2 189.09091845455441 15.577378936248559 2 168.09663300753181 14.509305128388371 2 184.69714672768657 18.750272645908261 2 69.480177586418421 24.423099413838486 2 91.348828138261098 22.133958767251105 2 141.86915411388171 26.252338131143365 2 87.984765054463935 34.598821973696829 2 99.653017936857921 38.754346170980057 2 23.393987520923179 40.037705258206273 2 45.178724035113305 39.302624139765982 2 104.91348552015241 39.558463744714487 2 56.574972393087819 47.617541646240468 2 5.3566079700004332 53.586268167595428 2 36.51651847929422 58.200669429941925 2 136.25685700806866 59.504707559109512 2 69.461265665462776 60.893389795729504 2 98.907840650129202 66.068872402990081 2 137.56031889282482 64.665827493569125 2 47.644792849133182 65.004308861074136 2 43.043408943211368 74.229647435206488 2 19.416382387730295 71.052235898746105 2 187.54641663160487 77.403705240112501 2 2.6604716305380003 79.984271442598228 2 115.34553151692741 78.063737786903573 2 172.0346971025192 84.04077135317786 2 50.857847806215943 91.665103281095682 2 63.479806842028665 95.061093827243994 2 41.792608002162957 102.02488133467827 2 83.089426867813671 111.00893450757263 2 102.08202607366563 120.16111213026544 2 125.53445685595744 119.29666442216842 2 111.47675356254408 120.36766388707622 2 134.94980154239266 130.14572401914248 2 8.4964990198946406 129.24307190108854 2 41.639602342631335 127.27631596886225 2 110.90698510817748 134.81843513303195 2 94.27915851660552 132.12853196648788 2 156.10136329664877 137.31715793709722 2 110.83376910945398 145.25608056603932 2 179.37664357006321 142.21168938593641 2 82.645968577650649 140.59359709691142 2 70.523913209519236 146.79620387314489 2 40.589780615154616 150.29917327984489 2 48.379324021567172 148.52358939165768 2 135.84111969427789 152.28511836426995 2 64.591901164585693 156.31727148909999 2 190.44154219885343 149.53562553660046 2 66.678300352615693 151.25876815529998 2 107.80126914869977 157.53177318622033 2 177.72636963847023 156.74777681599929 2 85.75231673324592 167.79081934152592 2 133.71657056029599 169.6182004998839 2 120.37270248255679 170.92014754681327 2 17.362804797245897 167.56883116851665 2 190.96160230513698 164.94502593752875 2 11.538521529544624 170.29500064669273 2 35.714898560329203 177.66788206197174 2 72.313141932889593 177.50458908005407 2 52.767545124899264 180.02428643830487 2 191.10536016591499 179.44363409548902 2 34.069737038314585 188.52467501050575 2 22.980551865280674 190.47636483922403 2 130.32059877295683 197.33479559557097 2 </DataArray>
</Points>
<Cells>
<DataArray Name="connectivity" format="ascii" type="Int32">0</DataArray>
<DataArray Name="offsets" format="ascii" type="Int32">0</DataArray>
<DataArray Name="types" format="ascii" type="UInt8">1</DataArray>
</Cells>
<PointData>
<DataArray Name="Points" NumberOfComponents="3" format="ascii" type="Float32">19.204070122283134 6.5544008948929022 3.0 10.906328672846362 4.6967000198693558 3.0 52.05449215150378 7.206683906294681 3.0 99.778488737433307 4.2657445464913923 3.0 161.08765763990948 6.8203746201449613 3.0 26.00049235175986 12.79845787826163 3.0 187.61502196307433 10.563382657421764 3.0 170.67168584897476 19.057659995967263 3.0 179.69530093334748 20.266837114470089 3.0 71.536335458267899 19.617826898810485 3.0 96.288474835073558 20.4256497646635 3.0 139.34038765366034 21.678087446352286 3.0 89.358269818169376 29.555815548782153 3.0 97.084143600825826 34.200697914552926 3.0 19.734973545661575 36.30576974887461 3.0 50.34850346822158 40.071915859897437 3.0 101.52409107122055 43.635285613569543 3.0 61.738616247271807 48.427152641449588 3.0 10.285729382983977 55.324713229631989 3.0 41.229298002898062 60.460788519625602 3.0 131.81212694214707 62.310659870861571 3.0 66.131435332964855 64.922119011552923 3.0 93.783403357085163 65.01244794478383 3.0 136.8530394633662 69.846722350763415 3.0 44.559745572261754 69.226090873355361 3.0 38.540792805365221 71.535821264362653 3.0 20.20595486468202 76.218956758371931 3.0 182.74849260523908 75.330457986436727 3.0 7.2171006212319613 82.546147628170004 3.0 116.23095767680086 83.214897816747722 3.0 176.78816098012504 86.215100888438684 3.0 45.638590566513173 91.943999325281254 3.0 60.983520993747995 99.655261998170687 3.0 46.131867803522432 99.111248977300633 3.0 82.968441839190106 116.23423753806772 3.0 106.82987035711736 117.97221487327612 3.0 127.51718065659996 124.1326995200578 3.0 109.68580371848513 125.27775918882377 3.0 137.72350171932902 125.71571087400226 3.0 13.236362740090621 131.4458249629686 3.0 42.375972769656116 132.57547426484592 3.0 106.74421048701234 131.65670385351319 3.0 97.960167287197621 135.83913886677738 3.0 160.02291006551243 140.77257398690469 3.0 111.17638175792409 140.03962113649339 3.0 184.27865894985618 140.39821913420204 3.0 77.713361370085053 142.32212689807886 3.0 67.109327421572999 142.83905426333638 3.0 35.733189737100247 148.36734663626342 3.0 53.277713035930411 150.34683216255181 3.0 130.64449380856439 151.72520002952399 3.0 61.513294791642807 152.06350089843363 3.0 188.24118979620965 154.27882805530021 3.0 70.47573227517843 154.85124049356924 3.0 104.01145031210646 153.9323701352333 3.0 180.80234938699792 160.97350488632043 3.0 80.675831796723429 166.54674143925754 3.0 130.04133989382359 165.90187049760036 3.0 117.16268870498061 166.79531534593244 3.0 22.283542562898436 169.33086663335069 3.0 190.94280988668669 170.17135778800744 3.0 13.515746259691724 175.13328665561642 3.0 34.747716941438142 172.53144469218603 3.0 70.536600740946113 172.58906972489123 3.0 55.78781882527835 175.75856540752349 3.0 185.90389656859338 178.89851152342882 3.0 36.681177261818007 193.05223606439782 3.0 24.058814061823615 195.59192858755878 3.0 131.27935184214573 192.19201486034842 3.0 15.720052488335064 2.6604716305380003 2 5.6783733272150609 4.7267176558815569 2 54.630169931347098 2.6604716305380003 2 104.46141610940042 6.5870847556234704 2 157.92709254217274 2.6604716305380003 2 29.832320897162781 9.2438103378875471 2 189.09091845455441 15.577378936248559 2 168.09663300753181 14.509305128388371 2 184.69714672768657 18.750272645908261 2 69.480177586418421 24.423099413838486 2 91.348828138261098 22.133958767251105 2 141.86915411388171 26.252338131143365 2 87.984765054463935 34.598821973696829 2 99.653017936857921 38.754346170980057 2 23.393987520923179 40.037705258206273 2 45.178724035113305 39.302624139765982 2 104.91348552015241 39.558463744714487 2 56.574972393087819 47.617541646240468 2 5.3566079700004332 53.586268167595428 2 36.51651847929422 58.200669429941925 2 136.25685700806866 59.504707559109512 2 69.461265665462776 60.893389795729504 2 98.907840650129202 66.068872402990081 2 137.56031889282482 64.665827493569125 2 47.644792849133182 65.004308861074136 2 43.043408943211368 74.229647435206488 2 19.416382387730295 71.052235898746105 2 187.54641663160487 77.403705240112501 2 2.6604716305380003 79.984271442598228 2 115.34553151692741 78.063737786903573 2 172.0346971025192 84.04077135317786 2 50.857847806215943 91.665103281095682 2 63.479806842028665 95.061093827243994 2 41.792608002162957 102.02488133467827 2 83.089426867813671 111.00893450757263 2 102.08202607366563 120.16111213026544 2 125.53445685595744 119.29666442216842 2 111.47675356254408 120.36766388707622 2 134.94980154239266 130.14572401914248 2 8.4964990198946406 129.24307190108854 2 41.639602342631335 127.27631596886225 2 110.90698510817748 134.81843513303195 2 94.27915851660552 132.12853196648788 2 156.10136329664877 137.31715793709722 2 110.83376910945398 145.25608056603932 2 179.37664357006321 142.21168938593641 2 82.645968577650649 140.59359709691142 2 70.523913209519236 146.79620387314489 2 40.589780615154616 150.29917327984489 2 48.379324021567172 148.52358939165768 2 135.84111969427789 152.28511836426995 2 64.591901164585693 156.31727148909999 2 190.44154219885343 149.53562553660046 2 66.678300352615693 151.25876815529998 2 107.80126914869977 157.53177318622033 2 177.72636963847023 156.74777681599929 2 85.75231673324592 167.79081934152592 2 133.71657056029599 169.6182004998839 2 120.37270248255679 170.92014754681327 2 17.362804797245897 167.56883116851665 2 190.96160230513698 164.94502593752875 2 11.538521529544624 170.29500064669273 2 35.714898560329203 177.66788206197174 2 72.313141932889593 177.50458908005407 2 52.767545124899264 180.02428643830487 2 191.10536016591499 179.44363409548902 2 34.069737038314585 188.52467501050575 2 22.980551865280674 190.47636483922403 2 130.32059877295683 197.33479559557097 2 </DataArray>
<DataArray Name="forces" NumberOfComponents="3" format="ascii" type="Float32">0.0 0.0 0.0 0.0 0.0 0.0 0.0 0.0 0.0 0.0 0.0 0.0 0.0 0.0 0.0 0.0 0.0 0.0 0.0 0.0 0.0 0.0 0.0 0.0 0.0 0.0 0.0 0.0 0.0 0.0 0.0 0.0 0.0 0.0 0.0 0.0 0.0 0.0 0.0 0.0 0.0 0.0 0.0 0.0 0.0 0.0 0.0 0.0 0.0 0.0 0.0 0.0 0.0 0.0 0.0 0.0 0.0 0.0 0.0 0.0 0.0 0.0 0.0 0.0 0.0 0.0 -0.0011031907361308303 -0.00022742744404290847 0.0 0.0 0.0 0.0 0.0 0.0 0.0 0.0 0.0 0.0 0.0 0.0 0.0 0.0 0.0 0.0 0.0 0.0 0.0 0.0 0.0 0.0 -0.00026930486674526925 0.00011129081250002657 0.0 0.0 0.0 0.0 0.0 0.0 0.0 0.0 0.0 0.0 0.0 0.0 0.0 0.0 0.0 0.0 0.0 0.0 0.0 0.0 0.0 0.0 0.0 0.0 0.0 0.0 0.0 0.0 0.0 0.0 0.0 0.0 0.0 0.0 0.0 0.0 0.0 0.0 0.0 0.0 0.0 0.0 0.0 0.0 0.0 0.0 0.0 0.0 0.0 0.0 0.0 0.0 0.0 0.0 0.0 0.0 0.0 0.0 0.0 0.0 0.0 0.0 0.0 0.0 0.0 0.0 0.0 0.0 0.0 0.0 0.0 0.0 0.0 0.0 0.0 0.0 0.0 0.0 0.0 0.0 0.0 0.0 0.0 0.0 0.0 0.0 0.0 0.0 -1.4616945325668189e-07 -2.6196220942506312e-07 0.0 0.0 0.0 0.0 0.0 0.0 0.0 0.0 0.0 0.0 0.0 0.0 0.0 -0.0005966293291980539 -7.9992114202722124e-05 0.0 0.0 0.0 0.0 0.0 0.0 0.0 0.0 0.0 0.0 0.0 0.0 0.0 0.0 0.0 0.0 0.0 0.0 0.0 0.0 0.0 0.0 0.0 0.0 0.0 0.0 0.0 0.0 0.0 0.0 0.0 0.0 0.0 0.0 0.0 0.0 0.0 0.0 0.0 0.0 0.0 0.0 0.0 0.0 0.0 0.0 0.0 0.0 0.0 0.0 0.0 0.0 0.0 0.0 0.0 0.0 0.0 0.0 0.0 0.0 0.0 0.0 0.0 0.0 0.0 0.0 0.0 0.0 0.0 0.0 0.0 0.0 0.0 0.0 0.0 0.0 0.0011031907361308303 0.00022742744404290847 0.0 0.0 0.0 0.0 0.0 0.0 0.0 0.0 0.0 0.0 0.0 0.0 0.0 0.0 0.0 0.0 0.0 0.0 0.0 0.0 0.0 0.0 -0.00069436674849623534 -0.00031750727178161021 0.0 0.0 0.0 0.0 0.0 0.0 0.0 0.0 0.0 0.0 0.0 0.0 0.0 0.0 0.0 0.0 0.0 0.0 0.0 0.0 0.0 0.0 0.0 0.0 0.0 0.0 0.0 0.0 0.0 0.0 0.0 0.0 0.0 0.0 0.0 0.0 0.0 0.0 0.0 0.0 0.0 0.0 0.0 0.0 0.0 0.0 0.0 0.0 0.0 0.0 0.0 0.0 0.0 0.0 0.0 0.0 0.0 0.0 0.0 0.0 0.0 0.0 0.0 0.0 0.0 0.0 0.0 0.0 0.0 0.0 0.0 0.0 0.0 0.0 0.0 0.0 0.0 0.0 0.0 0.0 0.0 0.0 0.0 0.0 0.0 0.0 0.0 0.0 0.0 0.0 0.0 0.0 0.0 0.0 0.0 0.0 0.0 0.0 0.0 0.0 0.0 0.0 0.0 0.00086327789119370777 9.0463735638964964e-05 0.0 0.0 0.0 0.0 0.0 0.0 0.0 0.0 0.0 0.0 </DataArray>
<DataArray Name="radii" format="ascii" type="Float32">2.6604716305380003 2.6604716305380003 2.6604716305380003 2.6604716305380003 2.6604716305380003 2.6604716305380003 2.6604716305380003 2.6604716305380003 2.6604716305380003 2.6604716305380003 2.6604716305380003 2.6604716305380003 2.6604716305380003 2.6604716305380003 2.6604716305380003 2.6604716305380003 2.6604716305380003 2.6604716305380003 2.6604716305380003 2.6604716305380003 2.6604716305380003 2.6604716305380003 2.6604716305380003 2.6604716305380003 2.6604716305380003 2.6604716305380003 2.6604716305380003 2.6604716305380003 2.6604716305380003 2.6604716305380003 2.6604716305380003 2.6604716305380003 2.6604716305380003 2.6604716305380003 2.6604716305380003 2.6604716305380003 2.6604716305380003 2.6604716305380003 2.6604716305380003 2.6604716305380003 2.6604716305380003 2.6604716305380003 2.6604716305380003 2.6604716305380003 2.6604716305380003 2.6604716305380003 2.6604716305380003 2.6604716305380003 2.6604716305380003 2.6604716305380003 2.6604716305380003 2.6604716305380003 2.6604716305380003 2.6604716305380003 2.6604716305380003 2.6604716305380003 2.6604716305380003 2.6604716305380003 2.6604716305380003 2.6604716305380003 2.6604716305380003 2.6604716305380003 2.6604716305380003 2.6604716305380003 2.6604716305380003 2.6604716305380003 2.6604716305380003 2.6604716305380003 2.6604716305380003 2.6604716305380003 2.6604716305380003 2.6604716305380003 2.6604716305380003 2.6604716305380003 2.6604716305380003 2.6604716305380003 2.6604716305380003 2.6604716305380003 2.6604716305380003 2.6604716305380003 2.6604716305380003 2.6604716305380003 2.6604716305380003 2.6604716305380003 2.6604716305380003 2.6604716305380003 2.6604716305380003 2.6604716305380003 2.6604716305380003 2.6604716305380003 2.6604716305380003 2.6604716305380003 2.6604716305380003 2.6604716305380003 2.6604716305380003 2.6604716305380003 2.6604716305380003 2.6604716305380003 2.6604716305380003 2.6604716305380003 2.6604716305380003 2.6604716305380003 2.6604716305380003 2.6604716305380003 2.6604716305380003 2.6604716305380003 2.6604716305380003 2.6604716305380003 2.6604716305380003 2.6604716305380003 2.6604716305380003 2.6604716305380003 2.6604716305380003 2.6604716305380003 2.6604716305380003 2.6604716305380003 2.6604716305380003 2.6604716305380003 2.6604716305380003 2.6604716305380003 2.6604716305380003 2.6604716305380003 2.6604716305380003 2.6604716305380003 2.6604716305380003 2.6604716305380003 2.6604716305380003 2.6604716305380003 2.6604716305380003 2.6604716305380003 2.6604716305380003 2.6604716305380003 2.6604716305380003 2.6604716305380003 2.6604716305380003 2.6604716305380003 2.6604716305380003 2.6604716305380003 </DataArray>
</PointData>
<CellData/>
</Piece>
</UnstructuredGrid>
</VTKFile>
