<?xml version="1.0" ?>
<VTKFile byte_order="LittleEndian" type="UnstructuredGrid" version="0.1">
<UnstructuredGrid>
<Piece NumberOfCells="0" NumberOfPoints="306">
<Points>
<DataArray NumberOfComponents="3" format="ascii" type="Float32">31.44698514121789 2.6290979429048793 3.0 85.771356051177222 8.3771748941155995 3.0 125.01262054727863 8.8880833177188023 3.0 79.460011741470694 18.989480192234968 3.0 8.7142010707708266 21.628016036554385 3.0 21.8162508891029 18.762624625330631 3.0 62.00043881898371 20.010150795877408 3.0 101.17184693022118 22.231813874601464 3.0 134.2961369194413 27.868813306351139 3.0 23.364035459374637 31.81781038367685 3.0 178.43059418848364 32.982424057700776 3.0 195.42842829182675 38.596311539665656 3.0 112.02626384841092 37.562894275976255 3.0 65.984119115207932 33.846093081196194 3.0 145.64261187367603 35.195402583623761 3.0 29.461324100112851 43.247982506348244 3.0 50.724032227989035 47.110477295586591 3.0 13.178338023901487 45.638005970815556 3.0 154.22015894882378 46.101833936904839 3.0 196.37461205775932 51.793137142735517 3.0 19.889267520647177 55.743250361294805 3.0 103.19190800194833 54.912435963950507 3.0 92.000417406448761 58.608780260989178 3.0 82.039265995138749 66.748169267674015 3.0 187.7637396476311 66.390693537678317 3.0 72.544477479400555 66.864760622981905 3.0 98.616917972116269 72.770366732352997 3.0 175.63041130494489 72.545418507228675 3.0 142.44588091012048 76.677097369430484 3.0 134.53701900493255 79.089019651375082 3.0 71.79104092813995 84.258356738904595 3.0 83.453377525831556 85.696066501740631 3.0 182.10756369868665 84.655986923614947 3.0 60.233735942172274 89.546728503763674 3.0 183.12127054771341 89.605363441389358 3.0 8.8641116414730377 98.554247149735261 3.0 183.35657452429336 103.40360493515934 3.0 72.917782152038782 104.49075650507528 3.0 133.08197788906685 102.79504490421738 3.0 160.26570493782194 110.11204195110022 3.0 2.7756189214694897 113.71183509631084 3.0 185.74892290920369 113.89213975275075 3.0 141.22506763604403 116.20103498242352 3.0 183.5282514801255 127.78208340687897 3.0 35.148590352248767 121.8040943735619 3.0 67.494400944674481 127.20619786004372 3.0 73.572321882291888 131.29266990202615 3.0 28.006896336304155 129.66665882721506 3.0 147.44283610912137 133.43218249783104 3.0 19.665903699475109 132.99058119572277 3.0 5.2166951741101055 135.5890317118031 3.0 31.996988448778875 142.81448389080953 3.0 197.37090205709512 137.23523504901141 3.0 6.6467737083566405 149.08450726012916 3.0 143.3238118130038 151.72499877227565 3.0 176.86559941438105 148.3365832821577 3.0 193.20219181570241 146.25276449279505 3.0 20.312738898089993 153.126673232765 3.0 170.38310634547207 153.47522633084256 3.0 29.759153590521787 152.28813758942852 3.0 160.5211309898919 157.51380590740084 3.0 11.248792241139522 158.03057339130621 3.0 118.41276042231601 154.54864351857262 3.0 41.119740077268638 162.35706761854198 3.0 50.455942217522221 159.63670767431515 3.0 149.18297407818707 161.53665744403372 3.0 93.162613106449157 158.90551887756013 3.0 165.63250997946409 166.62256865395815 3.0 94.56983029966068 170.72628386531781 3.0 180.91605303512671 170.99902102911201 3.0 100.1888511008887 175.03273238782512 3.0 147.6121969306015 181.45068653073312 3.0 27.940456796827259 184.34040414314785 3.0 185.09540644939378 187.38142916137943 3.0 193.21438085393595 193.37253637212692 3.0 91.377358920702505 196.51224958656221 3.0 15.829967447916244 197.32134147308943 3.0 188.6312955628355 196.40993260578011 3.0 22.760595042685388 3.0604716305380006 2 94.463155346508785 5.1288144707982859 2 121.41938265416587 12.59446507075968 2 73.675652423622878 10.856995917733522 2 10.009681494346232 13.781434521036523 2 17.310935554273993 23.472038655309799 2 64.323120871086644 24.392448971415639 2 106.87667540256564 24.362018432776271 2 134.4069982661361 35.785637531305014 2 27.975877955379445 29.493390049773925 2 183.27819420875065 35.190718810396994 2 194.99010189620117 31.286211522402176 2 118.93743836492382 39.252316361410614 2 72.204289825207738 41.989672762511375 2 140.02135554227286 38.861287778320339 2 27.449835300714263 34.599115599896329 2 57.757399164303585 40.874032738807472 2 18.352952057440397 47.625065681536093 2 160.06034959673445 52.636639759248176 2 189.94275829290413 52.716542374474656 2 25.164123595157868 57.8946021793735 2 99.034840955893316 58.000967946665035 2 90.689853748790341 51.657593004689311 2 81.90346598148858 60.779059427386407 2 196.80691547674118 66.57521565412307 2 79.227514143151126 71.482520314983603 2 106.37970047311728 74.233891078558642 2 175.23789000483578 67.399950377228123 2 148.72785224246056 72.873102605410111 2 135.23926998723462 84.532920859478807 2 75.360472510661893 91.911802643474587 2 89.594199050003112 87.401789121113978 2 176.78422789846795 93.671397813460032 2 68.839968157923948 88.493426475275683 2 189.00601729089871 94.628736284658359 2 4.4538637712140723 93.247052201185085 2 192.48585875556913 104.79219444040817 2 73.921235966898465 109.92636818534977 2 135.67264356178202 112.75542568043235 2 155.21714134936821 108.40165914087919 2 5.7002962629749412 109.45802663531873 2 190.87419858185567 121.37453882530173 2 146.39922995090666 123.64411809257953 2 181.39312819075926 121.24855407965771 2 62.805286537048815 129.36495867169674 2 71.80449425106012 124.36523970334008 2 29.737662389465498 134.55397617268042 2 141.99793663816362 133.04168989866872 2 22.936750165653358 139.74870877347598 2 3.1613262181745041 145.24093128699991 2 36.916947410496185 141.35212028378697 2 190.39728150857562 137.34576057714978 2 13.09819888472836 141.39197848477417 2 142.12962626212871 141.73085235030123 2 172.58099971968952 143.32905733315962 2 195.74189542924236 153.68638251150844 2 16.40365726413259 157.80685278942047 2 166.67919867287603 149.07862624982315 2 30.148109919053553 160.26860916091849 2 157.37527429974747 153.42086054555557 2 9.8912372489625895 153.03299996689384 2 123.54297429684975 155.11708917926933 2 48.315806786170924 155.16059355700756 2 153.07136172381908 156.44161512520236 2 101.14646691194145 163.14711556034871 2 158.53512608631351 170.26604992805542 2 95.214889786724456 176.41413236026014 2 197.5709020570951 168.15626392116559 2 178.38368676671729 181.74938141213357 2 102.64031384951559 179.57574169909438 2 154.44188341018975 184.31890320367393 2 27.259217064208716 189.27792180745288 2 190.36032469840191 186.29582981842893 2 197.37090205709512 190.31232179669894 2 87.969425480869106 188.33740299823293 2 16.422059707169723 192.00913068938456 2 178.34531144053375 196.6386250327823 2 27.548618918803534 5.6435818575631149 2 83.996336923991109 13.224766986482919 2 122.70061801630844 4.2725369404601921 2 75.375375046531971 15.832866882739797 2 6.030228229099647 17.218377302874188 2 24.249906634267198 23.311283774899831 2 56.892759949922933 19.262261201241053 2 105.22117554983508 19.363981226084753 2 130.96384712180318 31.811460745657694 2 20.857459481448082 27.321794398372603 2 174.47737146225785 36.302161103075441 2 191.34223277472003 35.44169109148978 2 110.44805565397463 32.647827351856755 2 68.31296248696151 38.453176183716181 2 145.07335378331211 40.326150014567013 2 33.440815865618603 39.95965539125168 2 11.221809453372787 40.860931927468748 2 155.00089036624601 51.204684358761703 2 197.37090205709512 46.650124224646881 2 18.198524481058467 60.669488143525271 2 105.41951802982967 59.583812235050225 2 87.156692284547049 60.416629503052619 2 77.278794351431671 64.802186577676267 2 192.10734105852373 69.180838925197008 2 73.980447415836153 71.822489532403765 2 93.726483028767589 71.117408766007657 2 176.20717037671466 77.472413619751634 2 140.32250574120553 72.197407698250387 2 133.38797007776193 74.265845222574384 2 76.392350625024079 86.59805036825496 2 80.467164796764777 89.920921262462443 2 187.01353074228453 83.967942558937239 2 64.033711608644523 86.361349310626821 2 181.95299361069269 94.633131101830216 2 10.007643714367566 93.520266778961641 2 179.81549827178429 99.433339805096324 2 67.985480383813083 106.01424698444769 2 135.15493893576615 107.52277760348085 2 165.21669674107099 111.57365206933552 2 6.3951930699795794 117.39250174209718 2 190.51399248044956 116.08392140694684 2 145.98519252758018 118.40225138717655 2 188.37315116567305 126.00007002708725 2 31.476501112588409 125.85279859311483 2 68.50323663203767 132.26888422695708 2 78.044812615486038 128.71479379174849 2 33.491666616934218 130.8211327598116 2 147.08539685887871 138.58202338430189 2 24.56415753148168 134.73419459584534 2 10.15089282817187 137.05213825673368 2 26.92702669626037 144.58189869026648 2 196.63083056838838 142.34414081887294 2 40.138981802463327 137.51015304600463 2 11.69030090324001 148.04777116557625 2 141.39347422825426 146.93726226562777 2 175.44107460056426 152.87325514355027 2 197.37090205709512 148.90344608459537 2 24.645326231779812 150.3200184675747 2 171.59289549081234 158.49375785140745 2 26.617815828843707 156.37622352371145 2 165.63566568555814 158.21391630557676 2 7.245651766591009 161.27777979908481 2 120.47420728615519 159.13882998976385 2 45.065544021399596 159.03351427366744 2 47.512044342028631 163.87688140579479 2 144.07151555082734 162.25888711433231 2 95.879433495363756 163.36895105548192 2 160.60895204541242 165.43408657296069 2 90.503367974452644 174.07957930781649 2 104.78974207278641 172.69171190169087 2 152.38359185206681 179.48030218319977 2 30.584440787595717 180.38115681857923 2 179.97441556203236 186.75091400972209 2 188.51007394137446 191.24978807218309 2 87.161481108600171 193.53315605871455 2 11.670675201351933 194.26145598814338 2 182.75349641545597 192.15020292521251 2 90.895777395548919 8.9929121229135021 2 117.7937949395431 16.402842409998247 2 69.259735667703538 13.807906048080968 2 15.279447085809425 13.603064190942048 2 14.851558831544013 18.836510128542169 2 62.496147105085065 29.108941557033383 2 111.66086316697265 22.180236727736091 2 137.73746469474074 31.716655184145818 2 31.866977567985703 25.96370830778735 2 181.58312387165282 40.168204172087314 2 189.76032303102946 30.427093845571228 2 116.31746739746141 34.693327865789705 2 67.126856488046499 43.575889256312486 2 140.74649357583442 44.06924311663029 2 32.417025284360342 33.667308526239481 2 14.100121245168967 50.717245301474613 2 159.73256193761392 47.384127328970258 2 192.29225312498309 48.012449653058418 2 24.318678723896607 63.084385117340013 2 95.109500147871984 54.501638950753893 2 87.223553739839886 66.638029090496744 2 192.28283483471776 63.895417468058803 2 84.331676501813163 72.745626103803019 2 103.32927714895779 69.95835410575765 2 180.38028061369278 68.706478363939638 2 144.64141802228221 69.564070587451866 2 130.47716353166456 82.27747764755469 2 79.673628996687455 95.118796486545136 2 85.639357655059257 90.866898600238187 2 177.68673466087182 88.694529593617276 2 68.687804355115858 93.748999001486851 2 185.34801082236112 98.641553662452623 2 7.4794240107956567 88.909764734122007 2 190.44021181002753 99.949309524936055 2 69.853208030985328 113.25800032083242 2 130.72750567442026 110.77125263636928 2 159.26660933042095 105.04741640316094 2 2.6290979429048793 105.18996327426882 2 186.16384897500009 119.03765596569551 2 141.61417638292187 121.34857986874368 2 177.31673836007565 124.56988080663105 2 36.666295627453543 126.73291673236027 2 57.857757590720922 127.58442370967927 2 77.000826117955214 123.56128022896053 2 28.164818190425802 139.43986343665586 2 144.97081773777205 128.70457435851134 2 18.290461171033776 142.06779470867312 2 2.6290979429048793 140.0528744450188 2 35.069538507640978 135.86486080596609 2 190.43579635088827 142.39895884446329 2 8.4465625013798711 143.81240058689878 2 137.00719631811509 144.03740190470262 2 171.91130791784317 148.54448367872627 2 197.37090205709512 158.46866323916737 2 15.173578392667253 152.63917628455124 2 163.60643982976069 153.34556635999849 2 34.898288909654404 158.02517316786626 2 155.17734844615217 148.64406872204975 2 4.7083924385477074 154.11583649853267 2 128.00922145188605 157.49228588327622 2 40.114963409698085 157.30978863421115 2 44.205923248675269 152.5961630970541 2 147.81402209865263 156.53649892455098 2 98.321304561299911 158.71204858040787 2 163.32092525515168 172.44429470059612 2 97.579195202037297 181.11079754545864 2 197.35869596220678 173.20180540149155 2 176.03806904884775 177.03373769680556 2 103.13815346789195 184.81031578610367 2 159.36444957350341 182.47039939210913 2 197.37090205709512 185.05436191980561 2 82.806805837374299 189.36713076108927 2 18.399364733461169 187.30663464443415 2 183.5552665891193 197.34890636117277 2 </DataArray>
</Points>
<Cells>
<DataArray Name="connectivity" format="ascii" type="Int32">0</DataArray>
<DataArray Name="offsets" format="ascii" type="Int32">0</DataArray>
<DataArray Name="types" format="ascii" type="UInt8">1</DataArray>
</Cells>
<PointData>
<DataArray Name="Points" NumberOfComponents="3" format="ascii" type="Float32">31.44698514121789 2.6290979429048793 3.0 85.771356051177222 8.3771748941155995 3.0 125.01262054727863 8.8880833177188023 3.0 79.460011741470694 18.989480192234968 3.0 8.7142010707708266 21.628016036554385 3.0 21.8162508891029 18.762624625330631 3.0 62.00043881898371 20.010150795877408 3.0 101.17184693022118 22.231813874601464 3.0 134.2961369194413 27.868813306351139 3.0 23.364035459374637 31.81781038367685 3.0 178.43059418848364 32.982424057700776 3.0 195.42842829182675 38.596311539665656 3.0 112.02626384841092 37.562894275976255 3.0 65.984119115207932 33.846093081196194 3.0 145.64261187367603 35.195402583623761 3.0 29.461324100112851 43.247982506348244 3.0 50.724032227989035 47.110477295586591 3.0 13.178338023901487 45.638005970815556 3.0 154.22015894882378 46.101833936904839 3.0 196.37461205775932 51.793137142735517 3.0 19.889267520647177 55.743250361294805 3.0 103.19190800194833 54.912435963950507 3.0 92.000417406448761 58.608780260989178 3.0 82.039265995138749 66.748169267674015 3.0 187.7637396476311 66.390693537678317 3.0 72.544477479400555 66.864760622981905 3.0 98.616917972116269 72.770366732352997 3.0 175.63041130494489 72.545418507228675 3.0 142.44588091012048 76.677097369430484 3.0 134.53701900493255 79.089019651375082 3.0 71.79104092813995 84.258356738904595 3.0 83.453377525831556 85.696066501740631 3.0 182.10756369868665 84.655986923614947 3.0 60.233735942172274 89.546728503763674 3.0 183.12127054771341 89.605363441389358 3.0 8.8641116414730377 98.554247149735261 3.0 183.35657452429336 103.40360493515934 3.0 72.917782152038782 104.49075650507528 3.0 133.08197788906685 102.79504490421738 3.0 160.26570493782194 110.11204195110022 3.0 2.7756189214694897 113.71183509631084 3.0 185.74892290920369 113.89213975275075 3.0 141.22506763604403 116.20103498242352 3.0 183.5282514801255 127.78208340687897 3.0 35.148590352248767 121.8040943735619 3.0 67.494400944674481 127.20619786004372 3.0 73.572321882291888 131.29266990202615 3.0 28.006896336304155 129.66665882721506 3.0 147.44283610912137 133.43218249783104 3.0 19.665903699475109 132.99058119572277 3.0 5.2166951741101055 135.5890317118031 3.0 31.996988448778875 142.81448389080953 3.0 197.37090205709512 137.23523504901141 3.0 6.6467737083566405 149.08450726012916 3.0 143.3238118130038 151.72499877227565 3.0 176.86559941438105 148.3365832821577 3.0 193.20219181570241 146.25276449279505 3.0 20.312738898089993 153.126673232765 3.0 170.38310634547207 153.47522633084256 3.0 29.759153590521787 152.28813758942852 3.0 160.5211309898919 157.51380590740084 3.0 11.248792241139522 158.03057339130621 3.0 118.41276042231601 154.54864351857262 3.0 41.119740077268638 162.35706761854198 3.0 50.455942217522221 159.63670767431515 3.0 149.18297407818707 161.53665744403372 3.0 93.162613106449157 158.90551887756013 3.0 165.63250997946409 166.62256865395815 3.0 94.56983029966068 170.72628386531781 3.0 180.91605303512671 170.99902102911201 3.0 100.1888511008887 175.03273238782512 3.0 147.6121969306015 181.45068653073312 3.0 27.940456796827259 184.34040414314785 3.0 185.09540644939378 187.38142916137943 3.0 193.21438085393595 193.37253637212692 3.0 91.377358920702505 196.51224958656221 3.0 15.829967447916244 197.32134147308943 3.0 188.6312955628355 196.40993260578011 3.0 22.760595042685388 3.0604716305380006 2 94.463155346508785 5.1288144707982859 2 121.41938265416587 12.59446507075968 2 73.675652423622878 10.856995917733522 2 10.009681494346232 13.781434521036523 2 17.310935554273993 23.472038655309799 2 64.323120871086644 24.392448971415639 2 106.87667540256564 24.362018432776271 2 134.4069982661361 35.785637531305014 2 27.975877955379445 29.493390049773925 2 183.27819420875065 35.190718810396994 2 194.99010189620117 31.286211522402176 2 118.93743836492382 39.252316361410614 2 72.204289825207738 41.989672762511375 2 140.02135554227286 38.861287778320339 2 27.449835300714263 34.599115599896329 2 57.757399164303585 40.874032738807472 2 18.352952057440397 47.625065681536093 2 160.06034959673445 52.636639759248176 2 189.94275829290413 52.716542374474656 2 25.164123595157868 57.8946021793735 2 99.034840955893316 58.000967946665035 2 90.689853748790341 51.657593004689311 2 81.90346598148858 60.779059427386407 2 196.80691547674118 66.57521565412307 2 79.227514143151126 71.482520314983603 2 106.37970047311728 74.233891078558642 2 175.23789000483578 67.399950377228123 2 148.72785224246056 72.873102605410111 2 135.23926998723462 84.532920859478807 2 75.360472510661893 91.911802643474587 2 89.594199050003112 87.401789121113978 2 176.78422789846795 93.671397813460032 2 68.839968157923948 88.493426475275683 2 189.00601729089871 94.628736284658359 2 4.4538637712140723 93.247052201185085 2 192.48585875556913 104.79219444040817 2 73.921235966898465 109.92636818534977 2 135.67264356178202 112.75542568043235 2 155.21714134936821 108.40165914087919 2 5.7002962629749412 109.45802663531873 2 190.87419858185567 121.37453882530173 2 146.39922995090666 123.64411809257953 2 181.39312819075926 121.24855407965771 2 62.805286537048815 129.36495867169674 2 71.80449425106012 124.36523970334008 2 29.737662389465498 134.55397617268042 2 141.99793663816362 133.04168989866872 2 22.936750165653358 139.74870877347598 2 3.1613262181745041 145.24093128699991 2 36.916947410496185 141.35212028378697 2 190.39728150857562 137.34576057714978 2 13.09819888472836 141.39197848477417 2 142.12962626212871 141.73085235030123 2 172.58099971968952 143.32905733315962 2 195.74189542924236 153.68638251150844 2 16.40365726413259 157.80685278942047 2 166.67919867287603 149.07862624982315 2 30.148109919053553 160.26860916091849 2 157.37527429974747 153.42086054555557 2 9.8912372489625895 153.03299996689384 2 123.54297429684975 155.11708917926933 2 48.315806786170924 155.16059355700756 2 153.07136172381908 156.44161512520236 2 101.14646691194145 163.14711556034871 2 158.53512608631351 170.26604992805542 2 95.214889786724456 176.41413236026014 2 197.5709020570951 168.15626392116559 2 178.38368676671729 181.74938141213357 2 102.64031384951559 179.57574169909438 2 154.44188341018975 184.31890320367393 2 27.259217064208716 189.27792180745288 2 190.36032469840191 186.29582981842893 2 197.37090205709512 190.31232179669894 2 87.969425480869106 188.33740299823293 2 16.422059707169723 192.00913068938456 2 178.34531144053375 196.6386250327823 2 27.548618918803534 5.6435818575631149 2 83.996336923991109 13.224766986482919 2 122.70061801630844 4.2725369404601921 2 75.375375046531971 15.832866882739797 2 6.030228229099647 17.218377302874188 2 24.249906634267198 23.311283774899831 2 56.892759949922933 19.262261201241053 2 105.22117554983508 19.363981226084753 2 130.96384712180318 31.811460745657694 2 20.857459481448082 27.321794398372603 2 174.47737146225785 36.302161103075441 2 191.34223277472003 35.44169109148978 2 110.44805565397463 32.647827351856755 2 68.31296248696151 38.453176183716181 2 145.07335378331211 40.326150014567013 2 33.440815865618603 39.95965539125168 2 11.221809453372787 40.860931927468748 2 155.00089036624601 51.204684358761703 2 197.37090205709512 46.650124224646881 2 18.198524481058467 60.669488143525271 2 105.41951802982967 59.583812235050225 2 87.156692284547049 60.416629503052619 2 77.278794351431671 64.802186577676267 2 192.10734105852373 69.180838925197008 2 73.980447415836153 71.822489532403765 2 93.726483028767589 71.117408766007657 2 176.20717037671466 77.472413619751634 2 140.32250574120553 72.197407698250387 2 133.38797007776193 74.265845222574384 2 76.392350625024079 86.59805036825496 2 80.467164796764777 89.920921262462443 2 187.01353074228453 83.967942558937239 2 64.033711608644523 86.361349310626821 2 181.95299361069269 94.633131101830216 2 10.007643714367566 93.520266778961641 2 179.81549827178429 99.433339805096324 2 67.985480383813083 106.01424698444769 2 135.15493893576615 107.52277760348085 2 165.21669674107099 111.57365206933552 2 6.3951930699795794 117.39250174209718 2 190.51399248044956 116.08392140694684 2 145.98519252758018 118.40225138717655 2 188.37315116567305 126.00007002708725 2 31.476501112588409 125.85279859311483 2 68.50323663203767 132.26888422695708 2 78.044812615486038 128.71479379174849 2 33.491666616934218 130.8211327598116 2 147.08539685887871 138.58202338430189 2 24.56415753148168 134.73419459584534 2 10.15089282817187 137.05213825673368 2 26.92702669626037 144.58189869026648 2 196.63083056838838 142.34414081887294 2 40.138981802463327 137.51015304600463 2 11.69030090324001 148.04777116557625 2 141.39347422825426 146.93726226562777 2 175.44107460056426 152.87325514355027 2 197.37090205709512 148.90344608459537 2 24.645326231779812 150.3200184675747 2 171.59289549081234 158.49375785140745 2 26.617815828843707 156.37622352371145 2 165.63566568555814 158.21391630557676 2 7.245651766591009 161.27777979908481 2 120.47420728615519 159.13882998976385 2 45.065544021399596 159.03351427366744 2 47.512044342028631 163.87688140579479 2 144.07151555082734 162.25888711433231 2 95.879433495363756 163.36895105548192 2 160.60895204541242 165.43408657296069 2 90.503367974452644 174.07957930781649 2 104.78974207278641 172.69171190169087 2 152.38359185206681 179.48030218319977 2 30.584440787595717 180.38115681857923 2 179.97441556203236 186.75091400972209 2 188.51007394137446 191.24978807218309 2 87.161481108600171 193.53315605871455 2 11.670675201351933 194.26145598814338 2 182.75349641545597 192.15020292521251 2 90.895777395548919 8.9929121229135021 2 117.7937949395431 16.402842409998247 2 69.259735667703538 13.807906048080968 2 15.279447085809425 13.603064190942048 2 14.851558831544013 18.836510128542169 2 62.496147105085065 29.108941557033383 2 111.66086316697265 22.180236727736091 2 137.73746469474074 31.716655184145818 2 31.866977567985703 25.96370830778735 2 181.58312387165282 40.168204172087314 2 189.76032303102946 30.427093845571228 2 116.31746739746141 34.693327865789705 2 67.126856488046499 43.575889256312486 2 140.74649357583442 44.06924311663029 2 32.417025284360342 33.667308526239481 2 14.100121245168967 50.717245301474613 2 159.73256193761392 47.384127328970258 2 192.29225312498309 48.012449653058418 2 24.318678723896607 63.084385117340013 2 95.109500147871984 54.501638950753893 2 87.223553739839886 66.638029090496744 2 192.28283483471776 63.895417468058803 2 84.331676501813163 72.745626103803019 2 103.32927714895779 69.95835410575765 2 180.38028061369278 68.706478363939638 2 144.64141802228221 69.564070587451866 2 130.47716353166456 82.27747764755469 2 79.673628996687455 95.118796486545136 2 85.639357655059257 90.866898600238187 2 177.68673466087182 88.694529593617276 2 68.687804355115858 93.748999001486851 2 185.34801082236112 98.641553662452623 2 7.4794240107956567 88.909764734122007 2 190.44021181002753 99.949309524936055 2 69.853208030985328 113.25800032083242 2 130.72750567442026 110.77125263636928 2 159.26660933042095 105.04741640316094 2 2.6290979429048793 105.18996327426882 2 186.16384897500009 119.03765596569551 2 141.61417638292187 121.34857986874368 2 177.31673836007565 124.56988080663105 2 36.666295627453543 126.73291673236027 2 57.857757590720922 127.58442370967927 2 77.000826117955214 123.56128022896053 2 28.164818190425802 139.43986343665586 2 144.97081773777205 128.70457435851134 2 18.290461171033776 142.06779470867312 2 2.6290979429048793 140.0528744450188 2 35.069538507640978 135.86486080596609 2 190.43579635088827 142.39895884446329 2 8.4465625013798711 143.81240058689878 2 137.00719631811509 144.03740190470262 2 171.91130791784317 148.54448367872627 2 197.37090205709512 158.46866323916737 2 15.173578392667253 152.63917628455124 2 163.60643982976069 153.34556635999849 2 34.898288909654404 158.02517316786626 2 155.17734844615217 148.64406872204975 2 4.7083924385477074 154.11583649853267 2 128.00922145188605 157.49228588327622 2 40.114963409698085 157.30978863421115 2 44.205923248675269 152.5961630970541 2 147.81402209865263 156.53649892455098 2 98.321304561299911 158.71204858040787 2 163.32092525515168 172.44429470059612 2 97.579195202037297 181.11079754545864 2 197.35869596220678 173.20180540149155 2 176.03806904884775 177.03373769680556 2 103.13815346789195 184.81031578610367 2 159.36444957350341 182.47039939210913 2 197.37090205709512 185.05436191980561 2 82.806805837374299 189.36713076108927 2 18.399364733461169 187.30663464443415 2 183.5552665891193 197.34890636117277 2 </DataArray>