<?xml version="1.0" ?>
<VTKFile byte_order="LittleEndian" type="UnstructuredGrid" version="0.1">
<UnstructuredGrid>
<Piece NumberOfCells="0" NumberOfPoints="268">
<Points>
<DataArray NumberOfComponents="3" format="ascii" type="Float32">17.855318886554493 8.2188119236068715 3.0 7.9326284915475229 5.8186960154846377 3.0 52.79712115806705 8.0647928901250907 3.0 100.05194892409128 7.6985202961032853 3.0 160.21291940642217 7.5633933929285915 3.0 24.196712466418692 14.085221681791072 3.0 188.34128225114861 8.8508612183337938 3.0 171.32627356063642 21.338062917979588 3.0 178.44834185562183 21.485636792439504 3.0 72.275598757383605 19.960760042957123 3.0 96.771919671255958 19.730336946734692 3.0 137.16812711038301 20.91303558083883 3.0 88.626321865516047 26.385222356266194 3.0 97.380144811629336 33.468445601971787 3.0 16.430103932557696 37.330816804188444 3.0 50.170406642521968 37.146056847242264 3.0 101.96646657799265 46.917743239659906 3.0 62.73520214024618 49.791167226980534 3.0 10.182835076569095 54.079185706540081 3.0 40.261639780469714 58.41319915349311 3.0 130.42878442254607 63.803125064455358 3.0 65.955648562276622 66.122612079182005 3.0 136.30421377914371 69.290774328479515 3.0 45.467312473759407 70.116144697729965 3.0 36.08953596674278 71.959641375231556 3.0 21.86231360145106 76.141770869324546 3.0 182.23357931542708 73.524560262229912 3.0 6.8616427239021318 83.472129201730894 3.0 115.32092558986614 84.384057229377717 3.0 177.21850722237122 83.35351195180948 3.0 43.57707417393528 90.744571543638202 3.0 61.307517053189194 100.09700711321555 3.0 46.004476549142105 98.740391548985883 3.0 82.834439955153684 115.51578760317037 3.0 105.79650465957198 117.62542507285089 3.0 129.07666520802496 125.61506033655164 3.0 111.44988141967694 125.4527733477116 3.0 135.59384507479535 124.13545460376096 3.0 13.632417761311979 129.50368728821311 3.0 106.63455866843695 132.18096192138702 3.0 99.555409448413528 138.15634024950344 3.0 160.49252510912333 139.93648465565951 3.0 112.90733913146723 139.74810340421766 3.0 185.04757762015768 138.6982192554899 3.0 77.23909385916393 140.32211376207027 3.0 67.629297495869537 141.20393592806062 3.0 32.06085890173042 147.84282682196002 3.0 55.80012785586964 150.09854932951623 3.0 128.73423533341909 150.31239703957112 3.0 59.643335905784383 153.82148586686051 3.0 186.2329641080666 153.21496326818368 3.0 72.040306526565175 158.15214384964432 3.0 103.09008013860603 151.66298900754637 3.0 179.46566359287576 162.16427566116701 3.0 80.998166648704554 165.10609558772876 3.0 129.87235068617468 167.33599879915059 3.0 114.84244710639148 167.48097768057045 3.0 23.056709209928147 167.79076026673445 3.0 190.10428081926509 171.36980796158093 3.0 14.809814465600244 174.52033124750059 3.0 33.556645807442607 170.67856635008434 3.0 70.930271573383138 169.93697436588329 3.0 56.800129886492961 173.11781309739348 3.0 38.219451494587091 192.9277715955121 3.0 22.238963433341603 195.84965249175465 3.0 130.37058973695173 191.53240824122929 3.0 17.122353602249458 3.1118912586568359 2 3.3684828280385299 8.1772083008773144 2 54.064278103597651 2.6290979429048793 2 104.64417352272551 5.1505300637790681 2 158.70156967704014 2.6290979429048793 2 32.769082576950069 8.3821643807780788 2 189.44864070122901 14.203143192442981 2 166.68775628827973 12.116735356763561 2 185.30299693983611 17.523074011529353 2 69.379207918644155 24.244306602149695 2 92.137363094235411 22.603357398500279 2 141.09081780309575 27.486311543857948 2 86.184906473476175 35.684209761776025 2 101.17405336752775 36.969722356888539 2 21.327411385342522 41.881800835934257 2 43.302422969021833 37.882821340143074 2 106.38706615388992 37.650293010876318 2 56.141770482143968 46.665993727330353 2 5.047011989398853 54.599934623996901 2 35.500038532362822 56.421207988998624 2 135.98276107713761 56.804070842215808 2 70.65951373131054 57.39415448553234 2 98.88097861578531 67.137965483828751 2 139.46996028190824 65.21260318926025 2 50.852927004251839 62.037151414033296 2 42.556166019759587 78.016673620623266 2 19.945561801140229 68.98093101274614 2 188.48243898869077 78.76669432489669 2 2.6290979429048793 80.516763067201481 2 113.80764367292072 75.330882957529269 2 168.30263295632949 84.039892131549664 2 52.660749142079332 92.071925672917274 2 62.616172819839953 93.895029215127281 2 41.196982900048077 103.44361685093199 2 81.735435238159184 110.47189892672638 2 101.63742710747255 121.46729841967988 2 123.83998316145623 117.31007735610324 2 111.1805866710254 120.29841007285567 2 134.82688075966115 129.24039238424064 2 8.508206435266727 126.36086030352803 2 44.982376282235414 122.94446053332845 2 110.98701884492746 134.95645317400985 2 92.898039751295286 132.3041790012031 2 155.9223511533948 137.53604186527443 2 112.02010373975199 145.89615578900063 2 178.56624365996879 143.44396702276984 2 82.378885976059678 140.66434996279085 2 72.193604606921809 147.77907111028034 2 138.04073954092638 152.86037746325925 2 64.493253268091536 155.40609108041377 2 188.32389586336899 147.11477969466227 2 67.400900515771497 149.94755443977232 2 108.56964427637206 159.21474907567153 2 176.79707852414458 157.74409312576947 2 86.230057521793697 169.00327138458442 2 134.99005482430485 168.69062522465336 2 122.49422759414394 171.37148716340238 2 16.44918513560971 165.86702819025948 2 191.93543703880971 161.84489790267745 2 11.111474468523292 170.9188169440462 2 36.771467010162489 179.21953047418583 2 72.359879709161575 179.77213386993665 2 52.268344909834497 182.36695181026269 2 36.222492574124395 186.15729724497095 2 22.160851052089228 190.68880093972112 2 131.85028049623679 196.47802642610517 2 22.945577955734432 9.0761107390611659 2 12.705750389015845 7.8578241037224617 2 47.767222458908165 6.9034389174621733 2 99.086889087555974 2.6290979429048793 2 165.34758534868456 7.0323243595822635 2 30.320073448886482 15.351645938147325 2 184.52147527116983 12.323280936520854 2 173.62809665461617 16.253645581896286 2 180.11310251918326 16.59920702146659 2 67.135593143140568 19.483395235380115 2 92.151006070686478 17.346112808900994 2 142.30202476139533 20.3729255155149 2 89.354494082927545 31.489468246406599 2 94.203269384315803 29.399525326774814 2 21.539720968842129 36.624573996879313 2 52.162636855234979 41.908598374369127 2 100.0610443729319 42.122299265384498 2 61.986590773164473 44.683505227227712 2 13.852197904734796 57.710143655838728 2 45.170041233886344 60.007240859569457 2 131.04837482605973 58.639085619988407 2 60.903552464563901 67.182971831471392 2 91.108792089525451 63.525655967222889 2 131.15464814699808 69.645655791964586 2 41.154742364360175 72.949443628040228 2 39.706949961864055 67.764095959586641 2 17.590311572068341 79.039920907043566 2 181.14517830849712 78.570788180587286 2 11.394202297379421 81.001394934347843 2 120.6163131794991 83.327353828120707 2 173.09494867080713 86.45350685039854 2 47.696586448466697 93.863369169436041 2 56.287862333402884 101.30050080062017 2 49.226142398211778 102.77393383738293 2 83.609696209145042 120.6194727486978 2 110.3499881933825 115.10672895291265 2 125.00890982489273 122.43669753211745 2 106.52827873834681 127.00783990269296 2 140.22677061409186 126.42043645254451 2 14.779256237003935 134.5332859119745 2 46.6091070792179 129.48757439256551 2 102.06253491777655 129.782163412231 2 98.077039294293613 133.21068537673045 2 162.89129583892873 144.50753678669378 2 108.11543045247224 141.66806031931048 2 183.81761480426491 143.71178240410629 2 79.667570378832366 145.27354466874024 2 62.973700985173259 143.39713373525953 2 36.794561756248974 147.38201028616217 2 53.354597243313485 154.62626810845757 2 132.05844498814048 154.46061825093028 2 58.205998503635549 145.52571928033049 2 188.84230372933217 157.64324457908447 2 71.69841238081608 153.00862416044075 2 103.22846440518124 156.82341914662337 2 184.05333999323327 159.80351399527461 2 78.051056856564671 169.34439334116871 2 129.92036493302723 162.17316745508558 2 116.95258749818123 162.76819555259377 2 23.40886840780411 172.95934073071592 2 192.71256330605661 166.98950298745757 2 11.052710371928899 178.06072357692577 2 37.572623070424854 173.98654892617492 2 66.616698253500985 172.78013023140878 2 55.265732081874283 178.04673258906206 2 185.85460477534627 174.20202587980702 2 33.478564889399266 195.0522561342122 2 27.181457252367416 197.33980765375367 2 134.51633129214935 188.45646108121559 2 11.932962350512305 2.6290979429048793 2 2.9518982268892024 2.6290979429048793 2 57.703777702813277 6.4231873040463254 2 106.94024230534204 9.88093090504454 2 153.44361981247673 2.6290979429048793 2 28.02318207272117 10.642294626395964 2 192.0588249471698 18.767741989249323 2 168.39169199453278 17.091196599445276 2 184.25496319760671 22.675767423111676 2 71.785282842600623 28.91967787866442 2 86.239060766371679 21.811178535029772 2 145.46741070112469 24.571610527073233 2 91.437420190061189 36.312400617138628 2 96.172113686824204 38.587171140846721 2 25.98926378865298 39.438101500092358 2 46.907858373275289 41.71030316494442 2 105.27825638168939 42.802854418734505 2 57.212829984386538 51.81395016811431 2 2.6290979429048793 49.930663644863429 2 36.383012719434433 61.819527037029125 2 140.15835366096954 59.999985613960405 2 69.693515097050366 62.562583530374098 2 101.33779804444916 62.598379681080587 2 135.27256242995267 62.018065235394545 2 46.56278103601985 65.075376001186896 2 47.480849203767569 74.867658042215382 2 17.384447746016836 73.573241843929253 2 187.39488695337829 73.622196820675356 2 4.336841890653421 75.543611676658102 2 117.00592086135011 79.504568023307144 2 172.61686449830515 81.029299769714981 2 48.493108390895088 88.665855580336142 2 66.169853383450757 98.364423968185122 2 40.873369939397648 98.174400929716555 2 86.193916787821735 107.68432536595506 2 100.8199107968456 116.25351490845111 2 129.05594307296042 118.17502675843808 2 116.38079869850429 119.52002407260846 2 134.01551041334977 134.43561154947835 2 8.481602888239447 131.61690320461361 2 41.886652221648106 127.19355177207575 2 113.3414488240693 130.25525385726368 2 90.500418631378338 127.6246415557564 2 152.68939995754837 133.38915811302326 2 106.80937161894052 146.76147132901579 2 179.4164675359701 138.25494679591256 2 87.354478584714911 138.98047452816434 2 72.601030205958551 142.55149462630831 2 51.132926441442784 148.20496256500104 2 133.91226140178941 149.54056651642188 2 67.073651101059767 159.97384246291273 2 191.15025483044303 151.56400309398543 2 62.191753277003592 149.24534508474522 2 107.6831507259689 154.02965612590066 2 180.55020500970036 154.00884316365418 2 85.978948054638352 163.74946720823635 2 131.22303152231589 172.35916163796895 2 117.27756055775312 172.03210706140649 2 18.700196019673925 170.6190355536647 2 187.53653140780662 166.13876057529515 2 11.195015971012374 165.66128474157034 2 32.616151433096718 175.76192457319229 2 73.187616461225531 174.57949717503053 2 49.848641069263742 177.61541831430762 2 32.512562387505241 189.8836930404498 2 23.123618544660054 185.49283529292356 2 126.65919046021702 197.31677111601715 2 </DataArray>
</Points>
<Cells>
<DataArray Name="connectivity" format="ascii" type="Int32">0</DataArray>
<DataArray Name="offsets" format="ascii" type="Int32">0</DataArray>
<DataArray Name="types" format="ascii" type="UInt8">1</DataArray>
</Cells>
<PointData>
<DataArray Name="Points" NumberOfComponents="3" format="ascii" type="Float32">17.855318886554493 8.2188119236068715 3.0 7.9326284915475229 5.8186960154846377 3.0 52.79712115806705 8.0647928901250907 3.0 100.05194892409128 7.6985202961032853 3.0 160.21291940642217 7.5633933929285915 3.0 24.196712466418692 14.085221681791072 3.0 188.34128225114861 8.8508612183337938 3.0 171.32627356063642 21.338062917979588 3.0 178.44834185562183 21.485636792439504 3.0 72.275598757383605 19.960760042957123 3.0 96.771919671255958 19.730336946734692 3.0 137.16812711038301 20.91303558083883 3.0 88.626321865516047 26.385222356266194 3.0 97.380144811629336 33.468445601971787 3.0 16.430103932557696 37.330816804188444 3.0 50.170406642521968 37.146056847242264 3.0 101.96646657799265 46.917743239659906 3.0 62.73520214024618 49.791167226980534 3.0 10.182835076569095 54.079185706540081 3.0 40.261639780469714 58.41319915349311 3.0 130.42878442254607 63.803125064455358 3.0 65.955648562276622 66.122612079182005 3.0 136.30421377914371 69.290774328479515 3.0 45.467312473759407 70.116144697729965 3.0 36.08953596674278 71.959641375231556 3.0 21.86231360145106 76.141770869324546 3.0 182.23357931542708 73.524560262229912 3.0 6.8616427239021318 83.472129201730894 3.0 115.32092558986614 84.384057229377717 3.0 177.21850722237122 83.35351195180948 3.0 43.57707417393528 90.744571543638202 3.0 61.307517053189194 100.09700711321555 3.0 46.004476549142105 98.740391548985883 3.0 82.834439955153684 115.51578760317037 3.0 105.79650465957198 117.62542507285089 3.0 129.07666520802496 125.61506033655164 3.0 111.44988141967694 125.4527733477116 3.0 135.59384507479535 124.13545460376096 3.0 13.632417761311979 129.50368728821311 3.0 106.63455866843695 132.18096192138702 3.0 99.555409448413528 138.15634024950344 3.0 160.49252510912333 139.93648465565951 3.0 112.90733913146723 139.74810340421766 3.0 185.04757762015768 138.6982192554899 3.0 77.23909385916393 140.32211376207027 3.0 67.629297495869537 141.20393592806062 3.0 32.06085890173042 147.84282682196002 3.0 55.80012785586964 150.09854932951623 3.0 128.73423533341909 150.31239703957112 3.0 59.643335905784383 153.82148586686051 3.0 186.2329641080666 153.21496326818368 3.0 72.040306526565175 158.15214384964432 3.0 103.09008013860603 151.66298900754637 3.0 179.46566359287576 162.16427566116701 3.0 80.998166648704554 165.10609558772876 3.0 129.87235068617468 167.33599879915059 3.0 114.84244710639148 167.48097768057045 3.0 23.056709209928147 167.79076026673445 3.0 190.10428081926509 171.36980796158093 3.0 14.809814465600244 174.52033124750059 3.0 33.556645807442607 170.67856635008434 3.0 70.930271573383138 169.93697436588329 3.0 56.800129886492961 173.11781309739348 3.0 38.219451494587091 192.9277715955121 3.0 22.238963433341603 195.84965249175465 3.0 130.37058973695173 191.53240824122929 3.0 17.122353602249458 3.1118912586568359 2 3.3684828280385299 8.1772083008773144 2 54.064278103597651 2.6290979429048793 2 104.64417352272551 5.1505300637790681 2 158.70156967704014 2.6290979429048793 2 32.769082576950069 8.3821643807780788 2 189.44864070122901 14.203143192442981 2 166.68775628827973 12.116735356763561 2 185.30299693983611 17.523074011529353 2 69.379207918644155 24.244306602149695 2 92.137363094235411 22.603357398500279 2 141.09081780309575 27.486311543857948 2 86.184906473476175 35.684209761776025 2 101.17405336752775 36.969722356888539 2 21.327411385342522 41.881800835934257 2 43.302422969021833 37.882821340143074 2 106.38706615388992 37.650293010876318 2 56.141770482143968 46.665993727330353 2 5.047011989398853 54.599934623996901 2 35.500038532362822 56.421207988998624 2 135.98276107713761 56.804070842215808 2 70.65951373131054 57.39415448553234 2 98.88097861578531 67.137965483828751 2 139.46996028190824 65.21260318926025 2 50.852927004251839 62.037151414033296 2 42.556166019759587 78.016673620623266 2 19.945561801140229 68.98093101274614 2 188.48243898869077 78.76669432489669 2 2.6290979429048793 80.516763067201481 2 113.80764367292072 75.330882957529269 2 168.30263295632949 84.039892131549664 2 52.660749142079332 92.071925672917274 2 62.616172819839953 93.895029215127281 2 41.196982900048077 103.44361685093199 2 81.735435238159184 110.47189892672638 2 101.63742710747255 121.46729841967988 2 123.83998316145623 117.31007735610324 2 111.1805866710254 120.29841007285567 2 134.82688075966115 129.24039238424064 2 8.508206435266727 126.36086030352803 2 44.982376282235414 122.94446053332845 2 110.98701884492746 134.95645317400985 2 92.898039751295286 132.3041790012031 2 155.9223511533948 137.53604186527443 2 112.02010373975199 145.89615578900063 2 178.56624365996879 143.44396702276984 2 82.378885976059678 140.66434996279085 2 72.193604606921809 147.77907111028034 2 138.04073954092638 152.86037746325925 2 64.493253268091536 155.40609108041377 2 188.32389586336899 147.11477969466227 2 67.400900515771497 149.94755443977232 2 108.56964427637206 159.21474907567153 2 176.79707852414458 157.74409312576947 2 86.230057521793697 169.00327138458442 2 134.99005482430485 168.69062522465336 2 122.49422759414394 171.37148716340238 2 16.44918513560971 165.86702819025948 2 191.93543703880971 161.84489790267745 2 11.111474468523292 170.9188169440462 2 36.771467010162489 179.21953047418583 2 72.359879709161575 179.77213386993665 2 52.268344909834497 182.36695181026269 2 36.222492574124395 186.15729724497095 2 22.160851052089228 190.68880093972112 2 131.85028049623679 196.47802642610517 2 22.945577955734432 9.0761107390611659 2 12.705750389015845 7.8578241037224617 2 47.767222458908165 6.9034389174621733 2 99.086889087555974 2.6290979429048793 2 165.34758534868456 7.0323243595822635 2 30.320073448886482 15.351645938147325 2 184.52147527116983 12.323280936520854 2 173.62809665461617 16.253645581896286 2 180.11310251918326 16.59920702146659 2 67.135593143140568 19.483395235380115 2 92.151006070686478 17.346112808900994 2 142.30202476139533 20.3729255155149 2 89.354494082927545 31.489468246406599 2 94.203269384315803 29.399525326774814 2 21.539720968842129 36.624573996879313 2 52.162636855234979 41.908598374369127 2 100.0610443729319 42.122299265384498 2 61.986590773164473 44.683505227227712 2 13.852197904734796 57.710143655838728 2 45.170041233886344 60.007240859569457 2 131.04837482605973 58.639085619988407 2 60.903552464563901 67.182971831471392 2 91.108792089525451 63.525655967222889 2 131.15464814699808 69.645655791964586 2 41.154742364360175 72.949443628040228 2 39.706949961864055 67.764095959586641 2 17.590311572068341 79.039920907043566 2 181.14517830849712 78.570788180587286 2 11.394202297379421 81.001394934347843 2 120.6163131794991 83.327353828120707 2 173.09494867080713 86.45350685039854 2 47.696586448466697 93.863369169436041 2 56.287862333402884 101.30050080062017 2 49.226142398211778 102.77393383738293 2 83.609696209145042 120.6194727486978 2 110.3499881933825 115.10672895291265 2 125.00890982489273 122.43669753211745 2 106.52827873834681 127.00783990269296 2 140.22677061409186 126.42043645254451 2 14.779256237003935 134.5332859119745 2 46.6091070792179 129.48757439256551 2 102.06253491777655 129.782163412231 2 98.077039294293613 133.21068537673045 2 162.89129583892873 144.50753678669378 2 108.11543045247224 141.66806031931048 2 183.81761480426491 143.71178240410629 2 79.667570378832366 145.27354466874024 2 62.973700985173259 143.39713373525953 2 36.794561756248974 147.38201028616217 2 53.354597243313485 154.62626810845757 2 132.05844498814048 154.46061825093028 2 58.205998503635549 145.52571928033049 2 188.84230372933217 157.64324457908447 2 71.69841238081608 153.00862416044075 2 103.22846440518124 156.82341914662337 2 184.05333999323327 159.80351399527461 2 78.051056856564671 169.34439334116871 2 129.92036493302723 162.17316745508558 2 116.95258749818123 162.76819555259377 2 23.40886840780411 172.95934073071592 2 192.71256330605661 166.98950298745757 2 11.052710371928899 178.06072357692577 2 37.572623070424854 173.98654892617492 2 66.616698253500985 172.78013023140878 2 55.265732081874283 178.04673258906206 2 185.85460477534627 174.20202587980702 2 33.478564889399266 195.0522561342122 2 27.181457252367416 197.33980765375367 2 134.51633129214935 188.45646108121559 2 11.932962350512305 2.6290979429048793 2 2.9518982268892024 2.6290979429048793 2 57.703777702813277 6.4231873040463254 2 106.94024230534204 9.88093090504454 2 153.44361981247673 2.6290979429048793 2 28.02318207272117 10.642294626395964 2 192.0588249471698 18.767741989249323 2 168.39169199453278 17.091196599445276 2 184.25496319760671 22.675767423111676 2 71.785282842600623 28.91967787866442 2 86.239060766371679 21.811178535029772 2 145.46741070112469 24.571610527073233 2 91.437420190061189 36.312400617138628 2 96.172113686824204 38.587171140846721 2 25.98926378865298 39.438101500092358 2 46.907858373275289 41.71030316494442 2 105.27825638168939 42.802854418734505 2 57.212829984386538 51.81395016811431 2 2.6290979429048793 49.930663644863429 2 36.383012719434433 61.819527037029125 2 140.15835366096954 59.999985613960405 2 69.693515097050366 62.562583530374098 2 101.33779804444916 62.598379681080587 2 135.27256242995267 62.018065235394545 2 46.56278103601985 65.075376001186896 2 47.480849203767569 74.867658042215382 2 17.384447746016836 73.573241843929253 2 187.39488695337829 73.622196820675356 2 4.336841890653421 75.543611676658102 2 117.00592086135011 79.504568023307144 2 172.61686449830515 81.029299769714981 2 48.493108390895088 88.665855580336142 2 66.169853383450757 98.364423968185122 2 40.873369939397648 98.174400929716555 2 86.193916787821735 107.68432536595506 2 100.8199107968456 116.25351490845111 2 129.05594307296042 118.17502675843808 2 116.38079869850429 119.52002407260846 2 134.01551041334977 134.43561154947835 2 8.481602888239447 131.61690320461361 2 41.886652221648106 127.19355177207575 2 113.3414488240693 130.25525385726368 2 90.500418631378338 127.6246415557564 2 152.68939995754837 133.38915811302326 2 106.80937161894052 146.76147132901579 2 179.4164675359701 138.25494679591256 2 87.354478584714911 138.98047452816434 2 72.601030205958551 142.55149462630831 2 51.132926441442784 148.20496256500104 2 133.91226140178941 149.54056651642188 2 67.073651101059767 159.97384246291273 2 191.15025483044303 151.56400309398543 2 62.191753277003592 149.24534508474522 2 107.6831507259689 154.02965612590066 2 180.55020500970036 154.00884316365418 2 85.978948054638352 163.74946720823635 2 131.22303152231589 172.35916163796895 2 117.27756055775312 172.03210706140649 2 18.700196019673925 170.6190355536647 2 187.53653140780662 166.13876057529515 2 11.195015971012374 165.66128474157034 2 32.616151433096718 175.76192457319229 2 73.187616461225531 174.57949717503053 2 49.848641069263742 177.61541831430762 2 32.512562387505241 189.8836930404498 2 23.123618544660054 185.49283529292356 2 126.65919046021702 197.31677111601715 2 </DataArray>