<?xml version="1.0" ?>
<VTKFile byte_order="LittleEndian" type="UnstructuredGrid" version="0.1">
<UnstructuredGrid>
<Piece NumberOfCells="0" NumberOfPoints="80">
<Points>
<DataArray NumberOfComponents="3" format="ascii" type="Float32">24.200000000000003 2.9925796838159271 3.0 89.0 8.9925796838159258 3.0 123.0 9.9925796838159258 3.0 76.0 16.992579683815926 3.0 9.0 18.992579683815926 3.0 21.0 20.992579683815926 3.0 62.0 21.992579683815926 3.0 103.0 21.992579683815926 3.0 134.0 30.992579683815926 3.0 24.0 31.992579683815926 3.0 179.0 34.992579683815926 3.0 194.0 35.992579683815926 3.0 114.0 36.992579683815926 3.0 68.0 37.992579683815926 3.0 144.0 37.992579683815926 3.0 29.0 39.992579683815926 3.0 53.0 44.992579683815926 3.0 14.0 45.992579683815926 3.0 156.0 48.992579683815926 3.0 195.0 50.992579683815926 3.0 21.0 57.992579683815926 3.0 99.0 57.992579683815926 3.0 92.0 59.992579683815926 3.0 84.0 64.992579683815947 3.0 191.0 66.992579683815947 3.0 76.0 68.992579683815947 3.0 100.0 70.992579683815947 3.0 176.0 72.992579683815947 3.0 143.0 73.992579683815947 3.0 134.0 79.992579683815947 3.0 75.0 87.992579683815947 3.0 84.0 87.992579683815947 3.0 181.0 88.992579683815947 3.0 63.0 89.992579683815947 3.0 184.0 93.992579683815947 3.0 8.0 95.992579683815947 3.0 185.0 99.992579683815947 3.0 72.0 106.99257968381595 3.0 134.0 106.99257968381595 3.0 160.0 109.99257968381595 3.0 4.0 112.99257968381595 3.0 187.0 117.99257968381595 3.0 143.0 119.99257968381595 3.0 185.0 124.99257968381595 3.0 36.0 127.99257968381595 3.0 66.0 128.9925796838159 3.0 74.0 128.9925796838159 3.0 33.0 133.9925796838159 3.0 146.0 133.9925796838159 3.0 21.0 135.9925796838159 3.0 4.0 139.9925796838159 3.0 32.0 139.9925796838159 3.0 197.0 139.9925796838159 3.0 43.0 140.9925796838159 3.0 9.0 146.9925796838159 3.0 142.0 147.9925796838159 3.0 175.0 148.9925796838159 3.0 195.0 148.9925796838159 3.0 19.0 153.9925796838159 3.0 169.0 153.9925796838159 3.0 31.0 154.9925796838159 3.0 161.0 154.9925796838159 3.0 10.0 155.9925796838159 3.0 121.0 156.9925796838159 3.0 40.0 157.9925796838159 3.0 48.0 158.9925796838159 3.0 149.0 159.9925796838159 3.0 96.0 160.9925796838159 3.0 163.0 167.9925796838159 3.0 95.0 173.9925796838159 3.0 195.0 173.9925796838159 3.0 181.0 174.9925796838159 3.0 100.0 176.9925796838159 3.0 151.0 181.9925796838159 3.0 28.0 185.9925796838159 3.0 186.0 187.9925796838159 3.0 193.0 191.9925796838159 3.0 89.0 193.9925796838159 3.0 16.0 194.9925796838159 3.0 186.0 194.9925796838159 3.0 </DataArray>
</Points>
<Cells>
<DataArray Name="connectivity" format="ascii" type="Int32">0</DataArray>
<DataArray Name="offsets" format="ascii" type="Int32">0</DataArray>
<DataArray Name="types" format="ascii" type="UInt8">1</DataArray>
</Cells>
<PointData>
<DataArray Name="Points" NumberOfComponents="3" format="ascii" type="Float32">24.200000000000003 2.9925796838159271 3.0 89.0 8.9925796838159258 3.0 123.0 9.9925796838159258 3.0 76.0 16.992579683815926 3.0 9.0 18.992579683815926 3.0 21.0 20.992579683815926 3.0 62.0 21.992579683815926 3.0 103.0 21.992579683815926 3.0 134.0 30.992579683815926 3.0 24.0 31.992579683815926 3.0 179.0 34.992579683815926 3.0 194.0 35.992579683815926 3.0 114.0 36.992579683815926 3.0 68.0 37.992579683815926 3.0 144.0 37.992579683815926 3.0 29.0 39.992579683815926 3.0 53.0 44.992579683815926 3.0 14.0 45.992579683815926 3.0 156.0 48.992579683815926 3.0 195.0 50.992579683815926 3.0 21.0 57.992579683815926 3.0 99.0 57.992579683815926 3.0 92.0 59.992579683815926 3.0 84.0 64.992579683815947 3.0 191.0 66.992579683815947 3.0 76.0 68.992579683815947 3.0 100.0 70.992579683815947 3.0 176.0 72.992579683815947 3.0 143.0 73.992579683815947 3.0 134.0 79.992579683815947 3.0 75.0 87.992579683815947 3.0 84.0 87.992579683815947 3.0 181.0 88.992579683815947 3.0 63.0 89.992579683815947 3.0 184.0 93.992579683815947 3.0 8.0 95.992579683815947 3.0 185.0 99.992579683815947 3.0 72.0 106.99257968381595 3.0 134.0 106.99257968381595 3.0 160.0 109.99257968381595 3.0 4.0 112.99257968381595 3.0 187.0 117.99257968381595 3.0 143.0 119.99257968381595 3.0 185.0 124.99257968381595 3.0 36.0 127.99257968381595 3.0 66.0 128.9925796838159 3.0 74.0 128.9925796838159 3.0 33.0 133.9925796838159 3.0 146.0 133.9925796838159 3.0 21.0 135.9925796838159 3.0 4.0 139.9925796838159 3.0 32.0 139.9925796838159 3.0 197.0 139.9925796838159 3.0 43.0 140.9925796838159 3.0 9.0 146.9925796838159 3.0 142.0 147.9925796838159 3.0 175.0 148.9925796838159 3.0 195.0 148.9925796838159 3.0 19.0 153.9925796838159 3.0 169.0 153.9925796838159 3.0 31.0 154.9925796838159 3.0 161.0 154.9925796838159 3.0 10.0 155.9925796838159 3.0 121.0 156.9925796838159 3.0 40.0 157.9925796838159 3.0 48.0 158.9925796838159 3.0 149.0 159.9925796838159 3.0 96.0 160.9925796838159 3.0 163.0 167.9925796838159 3.0 95.0 173.9925796838159 3.0 195.0 173.9925796838159 3.0 181.0 174.9925796838159 3.0 100.0 176.9925796838159 3.0 151.0 181.9925796838159 3.0 28.0 185.9925796838159 3.0 186.0 187.9925796838159 3.0 193.0 191.9925796838159 3.0 89.0 193.9925796838159 3.0 16.0 194.9925796838159 3.0 186.0 194.9925796838159 3.0 </DataArray>
<DataArray Name="forces" NumberOfComponents="3" format="ascii" type="Float32">0.0 0.0 0.0 0.0 0.0 0.0 0.0 0.0 0.0 0.0 0.0 0.0 0.0 0.0 0.0 0.0 0.0 0.0 0.0 0.0 0.0 0.0 0.0 0.0 0.0 0.0 0.0 0.0 0.0 0.0 0.0 0.0 0.0 0.0 0.0 0.0 0.0 0.0 0.0 0.0 0.0 0.0 0.0 0.0 0.0 0.0 0.0 0.0 0.0 0.0 0.0 0.0 0.0 0.0 0.0 0.0 0.0 0.0 0.0 0.0 0.0 0.0 0.0 0.0 0.0 0.0 0.0 0.0 0.0 0.0 0.0 0.0 0.0 0.0 0.0 0.0 0.0 0.0 0.0 0.0 0.0 0.0 0.0 0.0 0.0 0.0 0.0 0.0 0.0 0.0 0.0 0.0 0.0 0.0 0.0 0.0 0.0 0.0 0.0 0.0 0.0 0.0 0.0 0.0 0.0 0.0 0.0 0.0 0.0 0.0 0.0 0.0 0.0 0.0 0.0 0.0 0.0 0.0 0.0 0.0 0.0 0.0 0.0 0.0 0.0 0.0 0.0 0.0 0.0 0.0 0.0 0.0 0.0 0.0 0.0 0.0 0.0 0.0 0.0 0.0 0.0 0.0 0.0 0.0 0.0 0.0 0.0 0.0 0.0 0.0 0.0 0.0 0.0 0.0 0.0 0.0 0.0 0.0 0.0 0.0 0.0 0.0 0.0 0.0 0.0 0.0 0.0 0.0 0.0 0.0 0.0 0.0 0.0 0.0 0.0 0.0 0.0 0.0 0.0 0.0 0.0 0.0 0.0 0.0 0.0 0.0 0.0 0.0 0.0 0.0 0.0 0.0 0.0 0.0 0.0 0.0 0.0 0.0 0.0 0.0 0.0 0.0 0.0 0.0 0.0 0.0 0.0 0.0 0.0 0.0 0.0 0.0 0.0 0.0 0.0 0.0 0.0 0.0 0.0 0.0 0.0 0.0 0.0 0.0 0.0 0.0 0.0 0.0 0.0 0.0 0.0 0.0 0.0 0.0 0.0 0.0 0.0 0.0 0.0 0.0 </DataArray>
<DataArray Name="radii" format="ascii" type="Float32">2.7 2.7 2.7 2.7 2.7 2.7 2.7 2.7 2.7 2.7 2.7 2.7 2.7 2.7 2.7 2.7 2.7 2.7 2.7 2.7 2.7 2.7 2.7 2.7 2.7 2.7 2.7 2.7 2.7 2.7 2.7 2.7 2.7 2.7 2.7 2.7 2.7 2.7 2.7 2.7 2.7 2.7 2.7 2.7 2.7 2.7 2.7 2.7 2.7 2.7 2.7 2.7 2.7 2.7 2.7 2.7 2.7 2.7 2.7 2.7 2.7 2.7 2.7 2.7 2.7 2.7 2.7 2.7 2.7 2.7 2.7 2.7 2.7 2.7 2.7 2.7 2.7 2.7 2.7 2.7 </DataArray>
</PointData>
<CellData/>
</Piece>
</UnstructuredGrid>
</VTKFile>
