<?xml version="1.0" ?>
<VTKFile byte_order="LittleEndian" type="UnstructuredGrid" version="0.1">
<UnstructuredGrid>
<Piece NumberOfCells="0" NumberOfPoints="798">
<Points>
<DataArray NumberOfComponents="3" format="ascii" type="Float32">86.55406459107985 8.4917819898096987 3.0 127.17345207787753 9.8079288214730553 3.0 4.1605628994755017 23.443430804487729 3.0 196.42337066326192 38.628761425770143 3.0 147.95997617980734 35.289619094995771 3.0 49.999825755015188 47.646021264796573 3.0 11.153485527866085 45.082516790552589 3.0 155.71932851866458 40.630960823900494 3.0 197.61556755420216 54.850852002542744 3.0 19.111019316099846 52.209110907940712 3.0 80.492131162417508 65.156985641476453 3.0 183.55900242710513 61.840612540099286 3.0 100.23042018929408 75.139495435772133 3.0 172.4453778005207 74.910362072833436 3.0 141.47169135773586 78.581491185311265 3.0 135.91396809356132 80.272221824796077 3.0 71.819754056922065 81.679519516818445 3.0 86.795648309306969 83.950425727990662 3.0 183.78465881724816 87.30230973119356 3.0 8.2422201314586161 98.284818010385948 3.0 179.56364628298292 105.66915073566099 3.0 74.692617119500753 103.28085419172996 3.0 134.98290250667148 99.386522981081882 3.0 162.08479414833593 110.18973211796171 3.0 2.384432445797845 112.65542203271792 3.0 185.81747083197874 114.5459267709807 3.0 141.56913424461598 115.02802935026834 3.0 180.61424141678873 129.54212187549831 3.0 37.517557269654247 113.0817352174938 3.0 67.745419763569856 124.24422433467994 3.0 25.097845153148437 125.71658042373637 3.0 197.61556755420216 136.14520764548169 3.0 10.697125141385374 149.48346585749107 3.0 18.550339216272025 158.32667748763285 3.0 166.63352742597908 150.46772995240187 3.0 31.630051297240918 154.57896724569594 3.0 161.01343177925463 161.09737868460675 3.0 146.84108403609153 163.44278793760972 3.0 166.03105165791459 165.6300251861604 3.0 96.638398534889546 168.12475247076054 3.0 102.03446820921498 171.12296251626097 3.0 147.02115942495621 179.76768366789832 3.0 184.99419816099083 183.60955940004163 3.0 193.84422330187215 194.04442962839997 3.0 91.413465203681426 196.92918210228299 3.0 15.342207723601954 197.61556755420216 3.0 188.4776552872269 195.34587372894347 3.0 91.749785458806173 6.7027974693397416 2 118.37226457278294 13.141017983470904 2 75.439343829158062 8.4553938830577184 2 13.599203135046576 25.827195490624046 2 103.89206472997725 24.359076043726724 2 134.79933674501558 38.221308200182705 2 24.092192202619945 28.294729717245453 2 181.44597478658517 34.616172493234892 2 193.92184699978026 31.326823520399248 2 119.28458043830473 40.931138858322278 2 73.656313909971402 40.670352248513197 2 139.1207345640473 39.142158731990108 2 30.085927450814047 34.131614580501122 2 162.98506482847046 54.68705167593216 2 187.60007885927237 54.967660390389334 2 25.711345012484919 58.496976457372163 2 81.636782772188155 55.021004660104666 2 197.61556755420216 67.051809328527526 2 78.041550261006861 72.352052892793694 2 105.2748618520766 75.346690453658738 2 173.20327051572679 62.282855073238927 2 151.22820598883638 69.654639970154207 2 138.79197773364504 86.858847217120669 2 75.877476517437799 90.35412218941606 2 95.336819189182677 81.725153221251261 2 172.15317048549488 96.7555374876587 2 68.965645751019451 87.714219220059775 2 189.72708454539855 91.798019197215552 2 2.384432445797845 92.056262222369114 2 195.63780146751151 106.89802468322867 2 74.953579235275527 110.86359537295657 2 152.67574031935516 106.97912454990997 2 9.359926155059668 108.19950136200279 2 192.52987974621905 120.45799373667742 2 151.10903965180131 124.36963737628112 2 176.1250474122165 116.59165357679521 2 71.46198717381192 117.0449025396604 2 27.984723392736168 130.92375780147498 2 21.920659302784493 138.30289289160925 2 2.384432445797845 145.64558611303633 2 16.505379962866861 136.83745001786741 2 142.05920160475463 139.06650880531211 2 156.6835259999703 147.6254126909482 2 8.9153597791870443 152.47349157234754 2 152.10757422564035 155.07010134092448 2 156.75294052736888 171.05801618983446 2 91.954144948903973 177.23164236387152 2 175.0578359772739 180.42994844350608 2 104.88926351825208 176.41556850872826 2 151.25045240240894 186.36318122677457 2 191.68779910341149 181.37103022422684 2 197.61556755420216 188.86521776620958 2 88.280872096517456 189.15954943082505 2 10.935469518365478 190.05700290228472 2 172.63470431713088 197.61556755420216 2 29.238789066789323 2.6290979429048793 2 82.361420165253392 14.596664577309715 2 123.11353354336192 2.384432445797845 2 78.080130595404214 12.608038957074641 2 3.0041966305285395 18.601440512687972 2 26.941888256479626 23.001107379967969 2 55.658338669643761 16.320661170456294 2 126.13866233640334 30.173330829240971 2 20.220785825932911 29.63579348037916 2 171.67145771509377 37.101412212035534 2 187.12601735056279 31.742922882008774 2 69.938177846912183 36.506491143293069 2 145.24073596866609 42.211833182514297 2 32.057095415325001 40.021481477352005 2 11.224225079734662 40.033481988347496 2 154.41956223389755 51.107282948792431 2 193.39254210197399 47.058647858558679 2 106.80048092674164 58.313799676323264 2 89.317744341238893 55.904358397128263 2 74.047729057697552 61.790883038853885 2 192.90127038546075 67.757191095902982 2 71.316867597092511 71.25282673915261 2 92.047320220730967 70.763369894831314 2 75.778454802797881 82.697324752306315 2 79.915843615552831 90.919636760601421 2 187.23469295496753 83.640857891580467 2 59.682880251017657 84.721611355667562 2 180.52651038378772 93.702162639548916 2 13.952561756067825 92.875489594344913 2 176.09148649283267 100.38301246238724 2 137.53223167844146 102.95981375696562 2 167.88693522695084 108.70482679720112 2 7.1772578730442982 114.99034949965151 2 193.1683725010306 112.24927567076556 2 145.46052876822438 112.33533273928448 2 192.12041439048653 126.64455428402941 2 26.105413182801211 120.90373173852504 2 81.565289973236503 129.57426940594689 2 32.522371647573614 126.93678263951098 2 151.06341292740106 137.91951587595508 2 24.447673904442265 135.18419188079358 2 29.239856707958346 146.8447338998761 2 195.6324616745728 139.36429116124688 2 43.126207807844928 135.33302813953438 2 11.53387001094238 145.27784793021158 2 197.61556755420216 147.54284580669034 2 24.687677331391562 149.91377076075494 2 25.934754805436864 157.91192832789312 2 168.46647307403543 159.26080519121828 2 2.384432445797845 161.23302968464478 2 122.0096327184489 157.6170918786668 2 45.61782281833603 156.17903523588805 2 50.524056208237724 166.02035419127424 2 92.680238485243066 165.10236331018865 2 161.5066865929642 164.69667353791112 2 107.17520995102679 172.53456776274643 2 152.78823883297127 178.63814841664436 2 29.942239477444421 180.80868402716663 2 176.37063491959756 186.5637501872686 2 190.76033885665939 192.94406309732256 2 86.042146438200987 192.79848486277174 2 8.3836284221158159 193.81573666991133 2 177.93754035226615 192.27301156281308 2 115.02141108721531 16.432028055800018 2 67.94520697642794 11.103891052167404 2 12.477553580898931 22.072810100364606 2 62.408819116377693 29.288082767857635 2 116.08960660786312 21.491658501476685 2 137.14283129029019 30.795598230155939 2 38.62801754951748 24.307572379266873 2 178.5574642428594 37.912026257965884 2 120.0637391155629 31.596875048066639 2 140.46541052564879 46.722392916924008 2 34.957361254743425 35.142688131200757 2 159.64039548363132 42.791195138093627 2 185.92571030407717 47.303374558051374 2 24.593484708162098 63.462732352353136 2 96.391043823953325 53.041554001427848 2 87.790188003323365 67.164690527884261 2 195.11161755882651 58.476605604075694 2 89.379795903970177 75.026152642531969 2 146.67049164188708 67.040383599027209 2 131.90887440739402 82.688467216880326 2 80.803077993292206 101.42650952263907 2 89.096911117067194 94.844085071735336 2 188.52514431600173 98.95396266470722 2 196.51981807509389 96.666938413815686 2 70.781421717916871 112.34480053254279 2 126.02536800689811 109.2319760920755 2 160.69007304123929 104.04251945438008 2 4.7511342717245348 107.20118174582242 2 187.62431670741114 118.96724581399243 2 174.29633810467971 123.61194721620689 2 56.71359547479765 127.71139250710053 2 34.044334456152477 138.45936191519849 2 146.09033184541863 128.69877490989415 2 18.990874506803078 144.91585923299587 2 3.7890832613997545 136.26182342323884 2 37.717942496463223 136.10897847686675 2 13.310577441445364 140.33905856162409 2 173.28148498243544 148.66592825414031 2 16.974880594174632 152.02754796929347 2 163.28491628137706 150.02368558029943 2 35.840690289299374 158.63423529292365 2 2.384432445797845 156.32860849592186 2 126.15963443500853 159.42415229188936 2 41.965463166590659 160.05546731090024 2 45.129015342786211 151.93911803261486 2 143.49022562049879 155.99029690215451 2 164.38079973878303 175.98464362025695 2 95.310793070207623 183.82312253523153 2 173.4801452357955 175.48254731229062 2 105.60284397239955 185.10293292388531 2 160.5086670143854 180.13740217516096 2 197.61556755420216 185.2005301811663 2 80.047167097384971 188.03261166067128 2 19.42346925060345 181.78889776849243 2 176.68512855074809 196.84483006813247 2 38.939763224108617 2.604196630528539 2 80.024497592000571 7.7272323818437512 2 130.24145949202057 4.7527169881646092 2 9.77768710026006 26.988675917688543 2 18.603159360906886 15.974756132366373 2 60.373092762984676 13.968728454155777 2 130.26618601950096 28.738276544074115 2 174.25772316414677 30.034740795186302 2 191.6301286012845 39.057152784853557 2 114.84160719423956 35.102334646025405 2 64.466873796812891 34.634023038664189 2 16.290356738975163 44.839472019371634 2 151.65989301282741 47.571360814330269 2 197.61556755420216 48.128091774969441 2 20.988197004054825 57.492734150003571 2 82.182511666030436 71.888805033870753 2 176.92627765145573 71.121098843228253 2 147.32554959193124 76.704202720076211 2 131.35350550800382 77.716450940972038 2 75.385360976104195 78.367374240693593 2 82.424870662275836 85.793333799967542 2 191.09920207016739 87.935506188955813 2 14.021966189596528 101.21306128985694 2 18
[...]
<PointData>
<DataArray Name="Points" NumberOfComponents="3" format="ascii" type="Float32">86.55406459107985 8.4917819898096987 3.0 127.17345207787753 9.8079288214730553 3.0 4.1605628994755017 23.443430804487729 3.0 196.42337066326192 38.628761425770143 3.0 147.95997617980734 35.289619094995771 3.0 49.999825755015188 47.646021264796573 3.0 11.153485527866085 45.082516790552589 3.0 155.71932851866458 40.630960823900494 3.0 197.61556755420216 54.850852002542744 3.0 19.111019316099846 52.209110907940712 3.0 80.492131162417508 65.156985641476453 3.0 183.55900242710513 61.840612540099286 3.0 100.23042018929408 75.139495435772133 3.0 172.4453778005207 74.910362072833436 3.0 141.47169135773586 78.581491185311265 3.0 135.91396809356132 80.272221824796077 3.0 71.819754056922065 81.679519516818445 3.0 86.795648309306969 83.950425727990662 3.0 183.78465881724816 87.30230973119356 3.0 8.2422201314586161 98.284818010385948 3.0 179.56364628298292 105.66915073566099 3.0 74.692617119500753 103.28085419172996 3.0 134.98290250667148 99.386522981081882 3.0 162.08479414833593 110.18973211796171 3.0 2.384432445797845 112.65542203271792 3.0 185.81747083197874 114.5459267709807 3.0 141.56913424461598 115.02802935026834 3.0 180.61424141678873 129.54212187549831 3.0 37.517557269654247 113.0817352174938 3.0 67.745419763569856 124.24422433467994 3.0 25.097845153148437 125.71658042373637 3.0 197.61556755420216 136.14520764548169 3.0 10.697125141385374 149.48346585749107 3.0 18.550339216272025 158.32667748763285 3.0 166.63352742597908 150.46772995240187 3.0 31.630051297240918 154.57896724569594 3.0 161.01343177925463 161.09737868460675 3.0 146.84108403609153 163.44278793760972 3.0 166.03105165791459 165.6300251861604 3.0 96.638398534889546 168.12475247076054 3.0 102.03446820921498 171.12296251626097 3.0 147.02115942495621 179.76768366789832 3.0 184.99419816099083 183.60955940004163 3.0 193.84422330187215 194.04442962839997 3.0 91.413465203681426 196.92918210228299 3.0 15.342207723601954 197.61556755420216 3.0 188.4776552872269 195.34587372894347 3.0 91.749785458806173 6.7027974693397416 2 118.37226457278294 13.141017983470904 2 75.439343829158062 8.4553938830577184 2 13.599203135046576 25.827195490624046 2 103.89206472997725 24.359076043726724 2 134.79933674501558 38.221308200182705 2 24.092192202619945 28.294729717245453 2 181.44597478658517 34.616172493234892 2 193.92184699978026 31.326823520399248 2 119.28458043830473 40.931138858322278 2 73.656313909971402 40.670352248513197 2 139.1207345640473 39.142158731990108 2 30.085927450814047 34.131614580501122 2 162.98506482847046 54.68705167593216 2 187.60007885927237 54.967660390389334 2 25.711345012484919 58.496976457372163 2 81.636782772188155 55.021004660104666 2 197.61556755420216 67.051809328527526 2 78.041550261006861 72.352052892793694 2 105.2748618520766 75.346690453658738 2 173.20327051572679 62.282855073238927 2 151.22820598883638 69.654639970154207 2 138.79197773364504 86.858847217120669 2 75.877476517437799 90.35412218941606 2 95.336819189182677 81.725153221251261 2 172.15317048549488 96.7555374876587 2 68.965645751019451 87.714219220059775 2 189.72708454539855 91.798019197215552 2 2.384432445797845 92.056262222369114 2 195.63780146751151 106.89802468322867 2 74.953579235275527 110.86359537295657 2 152.67574031935516 106.97912454990997 2 9.359926155059668 108.19950136200279 2 192.52987974621905 120.45799373667742 2 151.10903965180131 124.36963737628112 2 176.1250474122165 116.59165357679521 2 71.46198717381192 117.0449025396604 2 27.984723392736168 130.92375780147498 2 21.920659302784493 138.30289289160925 2 2.384432445797845 145.64558611303633 2 16.505379962866861 136.83745001786741 2 142.05920160475463 139.06650880531211 2 156.6835259999703 147.6254126909482 2 8.9153597791870443 152.47349157234754 2 152.10757422564035 155.07010134092448 2 156.75294052736888 171.05801618983446 2 91.954144948903973 177.23164236387152 2 175.0578359772739 180.42994844350608 2 104.88926351825208 176.41556850872826 2 151.25045240240894 186.36318122677457 2 191.68779910341149 181.37103022422684 2 197.61556755420216 188.86521776620958 2 88.280872096517456 189.15954943082505 2 10.935469518365478 190.05700290228472 2 172.63470431713088 197.61556755420216 2 29.238789066789323 2.6290979429048793 2 82.361420165253392 14.596664577309715 2 123.11353354336192 2.384432445797845 2 78.080130595404214 12.608038957074641 2 3.0041966305285395 18.601440512687972 2 26.941888256479626 23.001107379967969 2 55.658338669643761 16.320661170456294 2 126.13866233640334 30.173330829240971 2 20.220785825932911 29.63579348037916 2 171.67145771509377 37.101412212035534 2 187.12601735056279 31.742922882008774 2 69.938177846912183 36.506491143293069 2 145.24073596866609 42.211833182514297 2 32.057095415325001 40.021481477352005 2 11.224225079734662 40.033481988347496 2 154.41956223389755 51.107282948792431 2 193.39254210197399 47.058647858558679 2 106.80048092674164 58.313799676323264 2 89.317744341238893 55.904358397128263 2 74.047729057697552 61.790883038853885 2 192.90127038546075 67.757191095902982 2 71.316867597092511 71.25282673915261 2 92.047320220730967 70.763369894831314 2 75.778454802797881 82.697324752306315 2 79.915843615552831 90.919636760601421 2 187.23469295496753 83.640857891580467 2 59.682880251017657 84.721611355667562 2 180.52651038378772 93.702162639548916 2 13.952561756067825 92.875489594344913 2 176.09148649283267 100.38301246238724 2 137.53223167844146 102.95981375696562 2 167.88693522695084 108.70482679720112 2 7.1772578730442982 114.99034949965151 2 193.1683725010306 112.24927567076556 2 145.46052876822438 112.33533273928448 2 192.12041439048653 126.64455428402941 2 26.105413182801211 120.90373173852504 2 81.565289973236503 129.57426940594689 2 32.522371647573614 126.93678263951098 2 151.06341292740106 137.91951587595508 2 24.447673904442265 135.18419188079358 2 29.239856707958346 146.8447338998761 2 195.6324616745728 139.36429116124688 2 43.126207807844928 135.33302813953438 2 11.53387001094238 145.27784793021158 2 197.61556755420216 147.54284580669034 2 24.687677331391562 149.91377076075494 2 25.934754805436864 157.91192832789312 2 168.46647307403543 159.26080519121828 2 2.384432445797845 161.23302968464478 2 122.0096327184489 157.6170918786668 2 45.61782281833603 156.17903523588805 2 50.524056208237724 166.02035419127424 2 92.680238485243066 165.10236331018865 2 161.5066865929642 164.69667353791112 2 107.17520995102679 172.53456776274643 2 152.78823883297127 178.63814841664436 2 29.942239477444421 180.80868402716663 2 176.37063491959756 186.5637501872686 2 190.76033885665939 192.94406309732256 2 86.042146438200987 192.79848486277174 2 8.3836284221158159 193.81573666991133 2 177.93754035226615 192.27301156281308 2 115.02141108721531 16.432028055800018 2 67.94520697642794 11.103891052167404 2 12.477553580898931 22.072810100364606 2 62.408819116377693 29.288082767857635 2 116.08960660786312 21.491658501476685 2 137.14283129029019 30.795598230155939 2 38.62801754951748 24.307572379266873 2 178.5574642428594 37.912026257965884 2 120.0637391155629 31.596875048066639 2 140.46541052564879 46.722392916924008 2 34.957361254743425 35.142688131200757 2 159.64039548363132 42.791195138093627 2 185.92571030407717 47.303374558051374 2 24.593484708162098 63.462732352353136 2 96.391043823953325 53.041554001427848 2 87.790188003323365 67.164690527884261 2 195.11161755882651 58.476605604075694 2 89.379795903970177 75.026152642531969 2 146.67049164188708 67.040383599027209 2 131.90887440739402 82.688467216880326 2 80.803077993292206 101.42650952263907 2 89.096911117067194 94.844085071735336 2 188.52514431600173 98.95396266470722 2 196.51981807509389 96.666938413815686 2 70.781421717916871 112.34480053254279 2 126.02536800689811 109.2319760920755 2 160.69007304123929 104.04251945438008 2 4.7511342717245348 107.20118174582242 2 187.62431670741114 118.96724581399243 2 174.29633810467971 123.61194721620689 2 56.71359547479765 127.71139250710053 2 34.044334456152477 138.45936191519849 2 146.09033184541863 128.69877490989415 2 18.990874506803078 144.91585923299587 2 3.7890832613997545 136.26182342323884 2 37.717942496463223 136.10897847686675 2 13.310577441445364 140.33905856162409 2 173.28148498243544 148.66592825414031 2 16.974880594174632 152.02754796929347 2 163.28491628137706 150.02368558029943 2 35.840690289299374 158.63423529292365 2 2.384432445797845 156.32860849592186 2 126.15963443500853 159.42415229188936 2 41.965463166590659 160.05546731090024 2 45.129015342786211 151.93911803261486 2 143.49022562049879 155.99029690215451 2 164.38079973878303 175.98464362025695 2 95.310793070207623 183.82312253523153 2 173.4801452357955 175.48254731229062 2 105.60284397239955 185.10293292388531 2 160.5086670143854 180.13740217516096 2 197.61556755420216 185.2005301811663 2 80.047167097384971 188.03261166067128 2 19.42346925060345 181.78889776849243 2 176.68512855074809 196.84483006813247 2 38.939763224108617 2.604196630528539 2 80.024497592000571 7.7272323818437512 2 130.24145949202057 4.7527169881646092 2 9.77768710026006 26.988675917688543 2 18.603159360906886 15.974756132366373 2 60.373092762984676 13.968728454155777 2 130.26618601950096 28.738276544074115 2 174.25772316414677 30.034740795186302 2 191.6301286012845 39.057152784853557 2 114.84160719423956 35.102334646025405 2 64.466873796812891 34.634023038664189 2 16.290356738975163 44.839472019371634 2 151.65989301282741 47.571360814330269 2 197.61556755420216 48.128091774969441 2 20.988197004054825 57.492734150003571 2 82.182511666030436 71.888805033870753 2 176.92627765145573 71.121098843228253 2 147.32554959193124 76.704202720076211 2 131.35350550800382 77.716450940972038 2 75.385360976104195 78.367374240693593 2 82.424870662275836 85.793333799967542 2 191.09920207016739 87.935506188955813 2 14.021966189596528 101.21306128985694 2 186.97052968349652 103.15547780618782 2 72.990517676095308 99.402190352568269 2 129.80721452621708 101.81883553049599 2 157.77665652488798 111.31328348575495 2 2.7296453790742676 119.78752654839251 2 182.32748451654996 110.36667931887322 2 141.98821109275053 110.23571523295531 2 184.73758861097696 125.03740855051028 2 30.244977778604106 117.79481611036373 2 66.845955643390951 128.43798012115167 2 72.235682512494932 129.05249641261369 2 20.781046797002748 124.312424371502 2 145.68019793998292 135.94727777132883 2 7.2283523696542433 132.88848007987445 2 195.54782708885389 127.62339514665898 2 6.9714123526749381 149.4061008133985 2 147.02310380274903 148.3492680380977 2 24.27025314557596 154.1135868629699 2 170.76129469753297 155.26385343988662 2 154.95655550379598 158.14856011275577 2 149.00907542307766 167.62129295588858 2 89.38989902518783 154.74438847369606 2 169.86999823180872 167.31877823559967 2 93.359480280479218 170.1657122520522 2 97.689830663125008 171.93449856259238 2 146.36479883887691 184.07550939600731 2 182.09398884406298 181.84954307042685 2 197.61556755420216 197.61556755420216 2 94.823349770068276 192.05232515707718 2 191.19286037264268 197.61556755420216 2 89.767430392434832 2.384432445797845 2 126.25767505855652 14.214329063292045 2 75.570434316245908 3.2719417925691352 2 16.282524191388191 20.135259213302032 2 111.32190880452565 27.110042683060875 2 130.39961618551649 38.362498902430254 2 31.4310029526081 29.502568053961092 2 187.56713154577793 38.176764724381023 2 197.61556755420216 26.326693977756204 2 122.80979513857741 39.051992924510571 2 78.558176151473972 43.564061327919326 2 142.19029234858925 35.743021905423703 2 159.12775940856577 51.173225343822388 2 182.62767549662644 53.833391488588148 2 24.752352973379537 52.985439179999311 2 86.489888737729913 52.058845054782751 2 76.941229643544574 55.949509698276998 2 195.50545497137747 63.408239267817407 2 75.312044383794628 69.420693765712286 2 108.07635472507258 71.422486421962077 2 171.8039699625333 66.702665983289265 2 154.75668873411456 75.97305057911062 2 131.69206902559461 88.322008963943588 2 72.264901091536785 94.770096189958451 2 89.778679798798734 86.808545553880904 2 172.86565095331107 92.480079550070855 2 64.618961993968625 88.320429983318292 2 196.93846524362621 90.68642216073394 2 3.0851990757838643 99.730784251671921 2 191.57532735303158 108.49134927604611 2 135.26790999330311 109.50641074317275 2 153.10425521956597 112.15353120277484 2 11.816559266590625 105.06770359631986 2 197.61556755420216 115.44385672693167 2 146.92431052391296 123.71619551484244 2 178.90802885771271 124.67475601048689 2 60.461327031577966 126.35102590559873 2 72.536541880829944 124.51824921313825 2 32.114216710839564 134.89269076673952 2 20.730803735433234 135.26247207591206 2 6.8638133596208197 137.89625005965917 2 193.16703809817511 132.73032023233213 2 138.31167984939643 136.76310532670232 2 12.526112022367093 160.35198580015475 2 35.959141267330736 162.66811444857939 2 159.49346474261392 155.03650793209141 2 7.4530021834353892 158.611439453288 2 151.37203105320998 159.57091530518505 2 159.76552824471631 174.92218318773283 2 99.70221430706242 178.25048483916947 2 171.52174418081603 179.05978379675719 2 101.10246017569247 182.15175320692666 2 159.48969989776529 185.79545449155768 2 188.03105805835173 187.45571441844356 2 194.27552228324353 187.09583934880266 2 90.712185040423961 183.92645810338357 2 17.98080066631471 186.16456900877978 2 169.95616946115246 191.6578730289329 2 119.65258434381489 8.6969420585042467 2 72.335415516666714 12.891601452794365 2 51.251433444558465 22.948469469324532 2 109.75101512055762 15.912184382584687 2 126.76071797016274 25.740592656691408 2 20.703229015650894 25.511399118566349 2 175.43683228836599 34.579043789613152 2 193.603072191308 35.554534698059229 2 105.5393778980625 31.140035298082161 2 65.937027047440083 39.813519304933791 2 149.88210105940234 39.511680360779884 2 7.2938957974922607 35.926910466920027 2 154.94598387325107 57.498775376923959 2 197.61556755420216 41.95398883541047 2 81.818052459302464 60.821567674212872 2 194.55025766100312 75.124470180952443 2 66.058172929115543 75.450095879542403 2 78.736310578019527 78.989726505698286 2 83.743975820405126 93.885552308194931 2 193.021983670574 83.653367727693578 2 63.90713520546813 82.846824417018325 2 185.91239641459748 92.757731072398258 2 10.351508068239234 91.148060761943754 2 174.04950315829797 103.7955116102592 2 70.465337610975837 107.26718875640111 2 133.5105064708662 105.24934770350345 2 163.46899856460701 115.79135121785755 2 13.243781131194096 113.86594303849841 2 189.93907868286328 115.67400743746667 2 148.23493479952458 119.73198184306975 2 186.01700988544084 130.61475499480957 2 37.596701717143816 121.36963922131018 2 77.254726554517617 126.73574930401341 2 33.433827349246783 123.18746139420939 2 149.99368331281093 142.79224046720941 2 22.887982603340976 127.83643191599421 2 26.49185974133675 143.3699784749241 2 197.61556755420216 143.22550814107976 2 16.153057800074528 147.88989148209652 2 142.52488646136146 147.48423997867673 2 197.47349749568431 154.49605501785459 2 28.068702972341754 151.0530455738953 2 169.37093304888779 163.20214328630445 2 4.6325433476746403 168.29195788956733 2 45.555413861489022 163.7267979183604 2 46.718457775388003 168.58660987181136 2 143.50732776387196 167.2167850642783 2 96.182703057716992 160.87137438669271 2 156.96677022418299 164.60202010514888 2 85.029158176029782 175.92050199202356 2 105.39429546043652 165.60856053007436 2 151.03728143379041 174.88426715799039 2 169.9449756926218 186.02056343509909 2 185.54864235983956 192.22916557042444 2 79.861977451574177 195.59135148451657 2 4.6696409245412909 192.43717657513133 2 182.47946661327816 186.63699475058377 2 119.67174346382437 19.481032126193263 2 12.826526778557604 17.26154108525343 2 56.805465410298368 30.662444759325147 2 108.70053584629103 22.769235632823445 2 141.17718114165055 30.212268167435383 2 30.541930651005213 23.184330031146306 2 183.9682667924682 41.559141913920328 2 192.69726140749592 26.614938639288443 2 115.38107338476208 30.172524068633493 2 142.37177292675787 50.514433575699513 2 35.771313542349809 30.900053982182179 2 166.16216722485399 48.552646287718439 2 191.29753931970151 50.524230282910885 2 96.632359022497312 48.847265619369445 2 187.47944387346573 61.57923537712302 2 85.0615812925938 75.155828086509445 2 176.55821554863326 64.780052134740089 2 146.56307504321333 71.791408286164682 2 127.93778112279577 81.250815330343741 2 77.306722866489352 94.175132493507903 2 86.049813030965069 87.957869814435625 2 181.8370729997493 98.496817539668726 2 12.445741490780851 87.199543433923822 2 191.44270920203448 103.20427642455888 2 62.956500989812511 115.47322918662221 2 131.22054237155103 111.38312456002373 2 160.68910920459538 99.600478433734708 2 6.1483711469419156 103.00579468213328 2 183.15082721484765 117.85462297561054 2 176.52625549572102 127.8733931093555 2 37.257698629448868 125.44270295567577 2 29.372832492238448 141.48456597208883 2 16.551929894040253 142.14838135207279 2 2.384432445797845 142.41284217964622 2 35.028313908217008 132.52659162183247 2 8.3920738525123362 145.18841893195662 2 168.92314366723397 145.83463419352438 2 197.19580336947146 159.95859569372666 2 13.097500656707471 153.01495615712034 2 164.26078892657671 153.97598006867372 2 31.867551017498055 158.82727295806353 2 152.5444255551879 145.8981637267257 2 2.384432445797845 152.35288748973909 2 41.549276381750147 153.91021695650528 2 148.30521693547055 155.66331809558758 2 161.62679922778599 169.79493792107925 2 95.010618973241392 187.56758776067753 2 197.61556755420216 174.4144847242242 2 175.7651218553595 171.53385984955509 2 101.71232182330748 186.54501189449266 2 163.62552794625879 184.36769109068123 2 197.61556755420216 180.18523861388576 2 82.403870565151749 183.87120856655054 2 181.93683423518161 197.42736451344371 2 97.64298223083982 70.038475416824838 2 32.521119728741979 149.73189892569042 2 40.143946950299231 139.33923691754447 2 11.97456249591283 134.80357346270728 2 87.214422897705461 61.463874649977562 2 94.539956568539978 75.837402258825563 2 92.522820542148551 65.357406167011106 2 111.16170121660102 61.198447924979781 2 26.589107374252592 37.506148919151158 2 47.073979288210118 137.80977080200441 2 42.390800198386756 148.35668199768745 2 83.287753608921648 4.6258754279516339 2 123.69820686972787 7.3610547991698914 2 6.2534733835562193 20.035601230593858 2 197.61556755420216 34.855871052459257 2 145.20581314591152 32.52140245337992 2 155.37307025877959 44.719144887335638 2 194.41084375333381 53.958415068179121 2 84.049197394551612 64.45202707660745 2 184.5932113091234 65.6551767473414 2 143.38784172396421 75.109890573771239 2 137.83672516284713 76.374502740032568 2 67.759442649235623 79.383709159427866 2 86.896338280602151 80.225850084684197 2 181.59060703475038 85.430509793783912 2 8.269753014022001 94.72882572091163 2 180.13071078677802 101.68897980314452 2 75.722334045137799 106.62787957288009 2 131.15664857450057 97.095845390507591 2 164.31588480556576 106.32044508962204 2 3.8129222069902844 110.5039399886025 2 187.95348463841401 111.07180660226348 2 143.35856649545474 118.79787936833782 2 182.63433421953764 133.04693757353954 2 37.18769606854508 116.98238361072795 2 64.192786792062293 121.09448550483559 2 28.338020025976611 124.77229572402032 2 197.61556755420216 132.83328955567325 2 13.523142947882681 148.90425292378924 2 22.113951366090564 157.62621182963659 2 169.77170897399509 151.30758591147128 2 161.82271194282146 157.38450079126721 2 143.89094609090478 160.54692734765337 2 166.06434472133071 169.46276999722761 2 98.661514598374751 165.14028307130886 2 105.19714351950537 169.11392758626786 2 145.48397145075646 175.87171063774613 2 188.204750794348 183.58728758474388 2 197.61556755420216 192.17941277673972 2 94.845345109463096 197.61556755420216 2 15.103811950973448 193.75563690016361 2 187.16549706586517 197.61556755420216 2 122.60828470885984 11.759957351526696 2 71.121728346445607 7.762498844548273 2 16.070195956199619 28.859469277407165 2 132.22360902140917 34.823616560071493 2 26.509386