<?xml version="1.0" ?>
<VTKFile byte_order="LittleEndian" type="UnstructuredGrid" version="0.1">
<UnstructuredGrid>
<Piece NumberOfCells="0" NumberOfPoints="160">
<Points>
<DataArray NumberOfComponents="3" format="ascii" type="Float32">27.766290019495464 3.9484482419642033 3.0 87.81947363839646 9.5532228431711115 3.0 123.71589779833405 8.7109846245216396 3.0 76.994170640414822 17.804178045839318 3.0 8.3776548419143921 20.084269835349694 3.0 22.282536093977043 20.408834493092691 3.0 61.256150898407562 20.728702866527396 3.0 101.68957622573519 21.495063005550488 3.0 133.5966433837493 29.568933399849474 3.0 22.978749760939628 32.084087128727909 3.0 177.7757931840855 34.271213082221841 3.0 194.07172248017309 37.232714956923878 3.0 112.71500561126742 36.415710353619865 3.0 67.27954879011682 36.71380649832269 3.0 145.07942077109465 37.038437345190054 3.0 29.467220256285213 41.152045064739831 3.0 51.808896891339351 45.411026083098221 3.0 12.980314922400821 44.966281324866863 3.0 154.90458788246355 48.059585994188041 3.0 196.34325200819262 50.638008752153524 3.0 19.741060551168342 57.347992640950224 3.0 101.31580779641283 57.417299452952356 3.0 91.245759977308055 60.332314307288996 3.0 82.570162134013728 65.885299864852016 3.0 189.64450852833573 67.017438719175388 3.0 74.555027785526264 68.57315185023694 3.0 98.681007294808637 71.290144318875463 3.0 175.79777192390054 74.219521011082392 3.0 141.74029421021478 74.392661947945484 3.0 133.96913312974559 78.508248829857791 3.0 74.407040815441647 86.643599945424555 3.0 82.653862419314905 87.65528451882841 3.0 181.99152520942386 87.315978585968011 3.0 61.904919124201363 89.170806291838517 3.0 183.13994630260333 92.531138108340031 3.0 8.8600146410270124 96.929127636067392 3.0 183.90610320163387 100.68579432628172 3.0 71.727195549721031 105.53547204493215 3.0 133.87539930450092 105.51360511567087 3.0 161.18823167781576 110.53970710362407 3.0 3.9270828817735004 114.23265149729032 3.0 187.15847112785517 116.07920862508276 3.0 142.47126177647496 118.61460324045024 3.0 185.56381069551279 126.1331737616072 3.0 35.297590830669975 126.06820497886014 3.0 67.362720049013575 128.8297538945296 3.0 74.266866965234783 130.20822902456584 3.0 32.304645873197764 131.77337546523162 3.0 147.04074005487806 134.75192589059486 3.0 20.622603700020417 134.56117477215784 3.0 6.8006380420809114 138.42284480803585 3.0 31.267410612741173 141.86326027246503 3.0 197.33952836946199 139.7939619523132 3.0 42.465866012289752 139.61688718346815 3.0 8.4684259902863364 147.57767774005623 3.0 142.24981292107162 149.21152027161088 3.0 175.84931857345774 149.93773406240902 3.0 195.19514430377666 147.35876612141968 3.0 20.04059835490424 152.99040888080503 3.0 170.57149611594483 154.25939597050046 3.0 29.60823918749178 153.68749411842606 3.0 161.74991002322889 155.97108946028391 3.0 10.557193728057962 157.75730224447068 3.0 119.64689464449404 157.03808588840994 3.0 41.48976369113786 159.01949633395202 3.0 48.913075229496386 159.9017103813413 3.0 148.08742392304725 160.88413453464861 3.0 94.723665536058647 160.39198260856836 3.0 163.98545668868408 166.9291242156747 3.0 94.03072024223259 172.3996764993845 3.0 193.53549014818753 174.81791173278287 3.0 180.83397417874281 173.4684171000828 3.0 100.97299253642497 175.511537862258 3.0 149.69006550853959 181.49336278495321 3.0 28.580095218913346 183.95204597273496 3.0 184.99134772663541 188.78850163284076 3.0 191.90426167578914 192.21880018088348 3.0 89.726414149100393 195.0249626896881 3.0 15.136295292310466 196.15046669089637 3.0 187.05951226012482 194.42847717922635 3.0 22.698777093201866 2.6604716305380003 2 92.345276536411163 6.9387368007578072 2 120.97134889560418 13.15911686830402 2 73.182802667742976 14.227601007029259 2 10.763549483185562 15.433900398583875 2 17.365656844414712 22.181608472728993 2 64.107857161959245 25.108908400982628 2 106.71336892371373 22.937261350227725 2 135.14299813035683 34.561649708162662 2 27.691089241703168 29.816758243140423 2 182.46905454227263 36.57158847797789 2 193.79675885447347 32.013249070245983 2 117.64130926496902 38.16212423617413 2 70.04155417993168 41.151120479132018 2 140.94122800142046 40.23120882756524 2 27.676030445805637 36.241844641082324 2 56.033608305232534 42.323802958301748 2 16.889498003236241 48.435678502787297 2 159.10408693416861 51.171279560781713 2 191.19360518185272 51.532193689187999 2 24.567476962749367 59.354017007620158 2 96.31954541632004 58.835169553256172 2 92.063373875363808 55.133979064226125 2 86.540565322607165 62.404073202370171 2 194.84107798262517 66.456996889546247 2 79.557909166955284 70.101459302850543 2 103.78149187920756 72.433187941929873 2 176.5730569515282 69.050636966766007 2 146.56964855543399 72.39372079174187 2 134.08746794664918 83.733612550093966 2 76.68027797740848 91.350065917160165 2 87.814571711325712 88.483239071328498 2 178.03814083529628 91.322478292924558 2 66.858626036059334 90.94818890279825 2 186.74821292358817 96.267136986750401 2 5.5629626807402284 92.873529343728606 2 189.38618218541083 100.92867020969521 2 72.773050358068375 110.65646968772685 2 134.35308299469688 110.71843435684421 2 156.63288878511941 107.97703656927652 2 4.2066264105906894 109.01342889683067 2 187.53926458100477 121.29343156475677 2 144.49829400730997 123.43223434637856 2 182.24636009645837 122.04962223186307 2 37.447111221476099 130.83297291168029 2 62.138438281488199 128.98884239554096 2 73.243774788789466 125.082635250558 2 30.523213376667396 136.68847696649999 2 143.05083816903706 131.37566877967828 2 22.069433964638559 139.58363545622865 2 2.6604716305380003 141.61564744037784 2 35.585495784206927 138.66767540296766 2 192.11530454304548 140.02114345963645 2 44.513584071057629 144.42576230031699 2 10.068481410199105 142.62746983997476 2 141.29210110800238 144.07330879087561 2 172.59327229942826 145.84914117499275 2 196.04308347316135 152.53148896657197 2 16.051239706531675 156.36730785949942 2 165.6516929337227 152.4918187880516 2 32.849531739383067 157.7870664368013 2 157.2777340573914 153.26580038133363 2 8.841561621494467 152.76790657353138 2 124.83431640689321 156.39848867403236 2 37.644593087948238 155.47930330163683 2 45.632076431686365 155.83299589745874 2 151.58598150554928 157.00102701880905 2 99.616769496817 162.22936192892197 2 160.2074955329025 170.5409712006753 2 96.036002260690708 177.22653868558086 2 197.33952836946199 171.23396548139576 2 180.68312778775149 178.69366707490113 2 101.22940062548361 180.73174953688633 2 154.71198243516213 182.94207929267793 2 28.138308932247057 189.16072951016486 2 188.85823416844423 185.27202351065552 2 196.84301810883471 190.51510394869547 2 86.941548543310972 190.6019600110383 2 17.787549143699707 191.64531103116897 2 182.25147011690606 196.47213553103921 2 </DataArray>
</Points>
<Cells>
<DataArray Name="connectivity" format="ascii" type="Int32">0</DataArray>
<DataArray Name="offsets" format="ascii" type="Int32">0</DataArray>
<DataArray Name="types" format="ascii" type="UInt8">1</DataArray>
</Cells>
<PointData>
<DataArray Name="Points" NumberOfComponents="3" format="ascii" type="Float32">27.766290019495464 3.9484482419642033 3.0 87.81947363839646 9.5532228431711115 3.0 123.71589779833405 8.7109846245216396 3.0 76.994170640414822 17.804178045839318 3.0 8.3776548419143921 20.084269835349694 3.0 22.282536093977043 20.408834493092691 3.0 61.256150898407562 20.728702866527396 3.0 101.68957622573519 21.495063005550488 3.0 133.5966433837493 29.568933399849474 3.0 22.978749760939628 32.084087128727909 3.0 177.7757931840855 34.271213082221841 3.0 194.07172248017309 37.232714956923878 3.0 112.71500561126742 36.415710353619865 3.0 67.27954879011682 36.71380649832269 3.0 145.07942077109465 37.038437345190054 3.0 29.467220256285213 41.152045064739831 3.0 51.808896891339351 45.411026083098221 3.0 12.980314922400821 44.966281324866863 3.0 154.90458788246355 48.059585994188041 3.0 196.34325200819262 50.638008752153524 3.0 19.741060551168342 57.347992640950224 3.0 101.31580779641283 57.417299452952356 3.0 91.245759977308055 60.332314307288996 3.0 82.570162134013728 65.885299864852016 3.0 189.64450852833573 67.017438719175388 3.0 74.555027785526264 68.57315185023694 3.0 98.681007294808637 71.290144318875463 3.0 175.79777192390054 74.219521011082392 3.0 141.74029421021478 74.392661947945484 3.0 133.96913312974559 78.508248829857791 3.0 74.407040815441647 86.643599945424555 3.0 82.653862419314905 87.65528451882841 3.0 181.99152520942386 87.315978585968011 3.0 61.904919124201363 89.170806291838517 3.0 183.13994630260333 92.531138108340031 3.0 8.8600146410270124 96.929127636067392 3.0 183.90610320163387 100.68579432628172 3.0 71.727195549721031 105.53547204493215 3.0 133.87539930450092 105.51360511567087 3.0 161.18823167781576 110.53970710362407 3.0 3.9270828817735004 114.23265149729032 3.0 187.15847112785517 116.07920862508276 3.0 142.47126177647496 118.61460324045024 3.0 185.56381069551279 126.1331737616072 3.0 35.297590830669975 126.06820497886014 3.0 67.362720049013575 128.8297538945296 3.0 74.266866965234783 130.20822902456584 3.0 32.304645873197764 131.77337546523162 3.0 147.04074005487806 134.75192589059486 3.0 20.622603700020417 134.56117477215784 3.0 6.8006380420809114 138.42284480803585 3.0 31.267410612741173 141.86326027246503 3.0 197.33952836946199 139.7939619523132 3.0 42.465866012289752 139.61688718346815 3.0 8.4684259902863364 147.57767774005623 3.0 142.24981292107162 149.21152027161088 3.0 175.84931857345774 149.93773406240902 3.0 195.19514430377666 147.35876612141968 3.0 20.04059835490424 152.99040888080503 3.0 170.57149611594483 154.25939597050046 3.0 29.60823918749178 153.68749411842606 3.0 161.74991002322889 155.97108946028391 3.0 10.557193728057962 157.75730224447068 3.0 119.64689464449404 157.03808588840994 3.0 41.48976369113786 159.01949633395202 3.0 48.913075229496386 159.9017103813413 3.0 148.08742392304725 160.88413453464861 3.0 94.723665536058647 160.39198260856836 3.0 163.98545668868408 166.9291242156747 3.0 94.03072024223259 172.3996764993845 3.0 193.53549014818753 174.81791173278287 3.0 180.83397417874281 173.4684171000828 3.0 100.97299253642497 175.511537862258 3.0 149.69006550853959 181.49336278495321 3.0 28.580095218913346 183.95204597273496 3.0 184.99134772663541 188.78850163284076 3.0 191.90426167578914 192.21880018088348 3.0 89.726414149100393 195.0249626896881 3.0 15.136295292310466 196.15046669089637 3.0 187.05951226012482 194.42847717922635 3.0 22.698777093201866 2.6604716305380003 2 92.345276536411163 6.9387368007578072 2 120.97134889560418 13.15911686830402 2 73.182802667742976 14.227601007029259 2 10.763549483185562 15.433900398583875 2 17.365656844414712 22.181608472728993 2 64.107857161959245 25.108908400982628 2 106.71336892371373 22.937261350227725 2 135.14299813035683 34.561649708162662 2 27.691089241703168 29.816758243140423 2 182.46905454227263 36.57158847797789 2 193.79675885447347 32.013249070245983 2 117.64130926496902 38.16212423617413 2 70.04155417993168 41.151120479132018 2 140.94122800142046 40.23120882756524 2 27.676030445805637 36.241844641082324 2 56.033608305232534 42.323802958301748 2 16.889498003236241 48.435678502787297 2 159.10408693416861 51.171279560781713 2 191.19360518185272 51.532193689187999 2 24.567476962749367 59.354017007620158 2 96.31954541632004 58.835169553256172 2 92.063373875363808 55.133979064226125 2 86.540565322607165 62.404073202370171 2 194.84107798262517 66.456996889546247 2 79.557909166955284 70.101459302850543 2 103.78149187920756 72.433187941929873 2 176.5730569515282 69.050636966766007 2 146.56964855543399 72.39372079174187 2 134.08746794664918 83.733612550093966 2 76.68027797740848 91.350065917160165 2 87.814571711325712 88.483239071328498 2 178.03814083529628 91.322478292924558 2 66.858626036059334 90.94818890279825 2 186.74821292358817 96.267136986750401 2 5.5629626807402284 92.873529343728606 2 189.38618218541083 100.92867020969521 2 72.773050358068375 110.65646968772685 2 134.35308299469688 110.71843435684421 2 156.63288878511941 107.97703656927652 2 4.2066264105906894 109.01342889683067 2 187.53926458100477 121.29343156475677 2 144.49829400730997 123.43223434637856 2 182.24636009645837 122.04962223186307 2 37.447111221476099 130.83297291168029 2 62.138438281488199 128.98884239554096 2 73.243774788789466 125.082635250558 2 30.523213376667396 136.68847696649999 2 143.05083816903706 131.37566877967828 2 22.069433964638559 139.58363545622865 2 2.6604716305380003 141.61564744037784 2 35.585495784206927 138.66767540296766 2 192.11530454304548 140.02114345963645 2 44.513584071057629 144.42576230031699 2 10.068481410199105 142.62746983997476 2 141.29210110800238 144.07330879087561 2 172.59327229942826 145.84914117499275 2 196.04308347316135 152.53148896657197 2 16.051239706531675 156.36730785949942 2 165.6516929337227 152.4918187880516 2 32.849531739383067 157.7870664368013 2 157.2777340573914 153.26580038133363 2 8.841561621494467 152.76790657353138 2 124.83431640689321 156.39848867403236 2 37.644593087948238 155.47930330163683 2 45.632076431686365 155.83299589745874 2 151.58598150554928 157.00102701880905 2 99.616769496817 162.22936192892197 2 160.2074955329025 170.5409712006753 2 96.036002260690708 177.22653868558086 2 197.33952836946199 171.23396548139576 2 180.68312778775149 178.69366707490113 2 101.22940062548361 180.73174953688633 2 154.71198243516213 182.94207929267793 2 28.138308932247057 189.16072951016486 2 188.85823416844423 185.27202351065552 2 196.84301810883471 190.51510394869547 2 86.941548543310972 190.6019600110383 2 17.787549143699707 191.64531103116897 2 182.25147011690606 196.47213553103921 2 </DataArray>
<DataArray Name="forces" NumberOfComponents="3" format="ascii" type="Float32">0.0 0.0 0.0 0.0 0.0 0.0 0.0 0.0 0.0 0.0 0.0 0.0 0.0 0.0 0.0 0.0 0.0 0.0 0.0 0.0 0.0 0.0 0.0 0.0 0.0 0.0 0.0 0.0 0.0 0.0 0.0 0.0 0.0 0.0 0.0 0.0 0.0 0.0 0.0 0.0 0.0 0.0 0.0 0.0 0.0 0.0 0.0 0.0 0.0 0.0 0.0 0.0 0.0 0.0 0.0 0.0 0.0 0.0 0.0 0.0 0.0 0.0 0.0 0.031137799291330516 -0.008849067049044727 0.0 -0.008083317239595586 0.0031799513614096039 0.0 -0.029469396437946653 0.017010723096279511 0.0 0.0 0.0 0.0 -0.0064638474100662067 -0.0018579384583549243 0.0 0.0 0.0 0.0 0.0 0.0 0.0 0.0 0.0 0.0 0.0 0.0 0.0 0.0 0.0 0.0 0.0 0.0 0.0 9.8780561823852225e-05 -0.0037308806221380613 0.0 0.0 0.0 0.0 0.0024708866269328952 0.0031428515596750046 0.0 0.0 0.0 0.0 0.0 0.0 0.0 0.0 0.0 0.0 0.0 0.0 0.0 0.0 0.0 0.0 0.0 0.0 0.0 0.0 0.0 0.0 0.0 0.0 0.0 0.0 0.0 0.0 0.0 0.0 0.0 0.0 0.0 0.0 0.0 0.0 0.0 0.0 0.0 0.0 0.0 0.0 0.0 0.0 0.0 0.0 -0.011286171430989724 -0.01452154022327568 0.0 0.0 0.0 0.0 0.0 0.0 0.0 0.0 0.0 0.0 -0.00012868515161438979 -0.001750378390546201 0.0 0.0 0.0 0.0 0.0 0.0 0.0 0.0 0.0 0.0 0.0 0.0 0.0 0.0 0.0 0.0 0.0 0.0 0.0 0.0 0.0 0.0 0.0033443559160644619 0.0097346579750626269 0.0 0.0 0.0 0.0 0.0 0.0 0.0 0.0 0.0 0.0 0.0 0.0 0.0 0.0 0.0 0.0 0.0 0.0 0.0 0.0 0.0 0.0 1.4616945325668189e-07 2.6196220942506312e-07 0.0 0.0 0.0 0.0 0.0 0.0 0.0 0.0 0.0 0.0 0.0 0.0 0.0 0.0 0.0 0.0 0.00070382805766229712 -0.00035651005834644127 0.0 0.0 0.0 0.0 0.0 0.0 0.0 -0.00071110075899322904 0.00033399975262199432 0.0 0.0 0.0 0.0 0.0 0.0 0.0 0.0 0.0 0.0 0.0 0.0 0.0 0.0 0.0 0.0 0.0 0.0 0.0 0.0 0.0 0.0 0.0 0.0 0.0 0.0 0.0 0.0 0.0 0.0 0.0 0.0 0.0 0.0 0.0 0.0 0.0 0.0 0.0 0.0 0.0 0.0 0.0 0.0 0.0 0.0 0.0 0.0 0.0 0.0 0.0 0.0 0.0 0.0 0.0 0.0 0.0 0.0 0.0 0.0 0.0 0.0 0.0 0.0 0.030675867595153117 -0.0093468523611186429 0.0 0.0015289688305396283 -0.010020131499803615 0.0 -0.0087591517426909501 -0.015197534206889816 0.0 0.0 0.0 0.0 -0.010566922886723859 0.025080849117522609 0.0 0.0 0.0 0.0 0.0 0.0 0.0 0.0 0.0 0.0 0.0 0.0 0.0 0.0 0.0 0.0 0.0 0.0 0.0 -0.0030655448058882219 -0.00072130993883052163 0.0 0.0 0.0 0.0 -0.0023379803691136606 -0.005190118523189147 0.0 0.0 0.0 0.0 0.0037975296014866396 0.0067056739837643093 0.0 0.0 0.0 0.0 0.0 0.0 0.0 0.0 0.0 0.0 0.0 0.0 0.0 0.0 0.0 0.0 0.0 0.0 0.0 0.0 0.0 0.0 0.0 0.0 0.0 0.0 0.0 0.0 0.0 0.0 0.0 0.0 0.0 0.0 0.0 0.0 0.0 0.0 0.0 0.0 0.0 0.0 0.0 0.0 0.0 0.0 0.0 0.0 0.0 0.0 0.0 0.0 0.011286171430989724 0.01452154022327568 0.0 0.0 0.0 0.0 0.0 0.0 0.0 0.0 0.0 0.0 0.0 0.0 0.0 0.0 0.0 0.0 0.0 0.0 0.0 0.0 0.0 0.0 -0.0032156707644500722 -0.0079842795845164252 0.0 0.0 0.0 0.0 0.0 0.0 0.0 0.0 0.0 0.0 0.0 0.0 0.0 0.0 0.0 0.0 0.0 0.0 0.0 0.0 0.0 0.0 0.0 0.0 0.0 -0.00026664856199565387 -1.0471621436242846e-05 0.0 0.0 0.0 0.0 0.0 0.0 0.0 0.0 0.0 0.0 0.0 0.0 0.0 0.00031989087485314308 -0.00011037467737157666 0.0 0.0 0.0 0.0 0.0 0.0 0.0 -0.00031261817352221111 0.00013288498309602367 0.0 </DataArray>
<DataArray Name="radii" format="ascii" type="Float32">2.6604716305380003 2.6604716305380003 2.6604716305380003 2.6604716305380003 2.6604716305380003 2.6604716305380003 2.6604716305380003 2.6604716305380003 2.6604716305380003 2.6604716305380003 2.6604716305380003 2.6604716305380003 2.6604716305380003 2.6604716305380003 2.6604716305380003 2.6604716305380003 2.6604716305380003 2.6604716305380003 2.6604716305380003 2.6604716305380003 2.6604716305380003 2.6604716305380003 2.6604716305380003 2.6604716305380003 2.6604716305380003 2.6604716305380003 2.6604716305380003 2.6604716305380003 2.6604716305380003 2.6604716305380003 2.6604716305380003 2.6604716305380003 2.6604716305380003 2.6604716305380003 2.6604716305380003 2.6604716305380003 2.6604716305380003 2.6604716305380003 2.6604716305380003 2.6604716305380003 2.6604716305380003 2.6604716305380003 2.6604716305380003 2.6604716305380003 2.6604716305380003 2.6604716305380003 2.6604716305380003 2.6604716305380003 2.6604716305380003 2.6604716305380003 2.6604716305380003 2.6604716305380003 2.6604716305380003 2.6604716305380003 2.6604716305380003 2.6604716305380003 2.6604716305380003 2.6604716305380003 2.6604716305380003 2.6604716305380003 2.6604716305380003 2.6604716305380003 2.6604716305380003 2.6604716305380003 2.6604716305380003 2.6604716305380003 2.6604716305380003 2.6604716305380003 2.6604716305380003 2.6604716305380003 2.6604716305380003 2.6604716305380003 2.6604716305380003 2.6604716305380003 2.6604716305380003 2.6604716305380003 2.6604716305380003 2.6604716305380003 2.6604716305380003 2.6604716305380003 2.6604716305380003 2.6604716305380003 2.6604716305380003 2.6604716305380003 2.6604716305380003 2.6604716305380003 2.6604716305380003 2.6604716305380003 2.6604716305380003 2.6604716305380003 2.6604716305380003 2.6604716305380003 2.6604716305380003 2.6604716305380003 2.6604716305380003 2.6604716305380003 2.6604716305380003 2.6604716305380003 2.6604716305380003 2.6604716305380003 2.6604716305380003 2.6604716305380003 2.6604716305380003 2.6604716305380003 2.6604716305380003 2.6604716305380003 2.6604716305380003 2.6604716305380003 2.6604716305380003 2.6604716305380003 2.6604716305380003 2.6604716305380003 2.6604716305380003 2.6604716305380003 2.6604716305380003 2.6604716305380003 2.6604716305380003 2.6604716305380003 2.6604716305380003 2.6604716305380003 2.6604716305380003 2.6604716305380003 2.6604716305380003 2.6604716305380003 2.6604716305380003 2.6604716305380003 2.6604716305380003 2.6604716305380003 2.6604716305380003 2.6604716305380003 2.6604716305380003 2.6604716305380003 2.6604716305380003 2.6604716305380003 2.6604716305380003 2.6604716305380003 2.6604716305380003 2.6604716305380003 2.6604716305380003 2.6604716305380003 2.6604716305380003 2.6604716305380003 2.6604716305380003 2.6604716305380003 2.6604716305380003 2.6604716305380003 2.6604716305380003 2.6604716305380003 2.6604716305380003 2.6604716305380003 2.6604716305380003 2.6604716305380003 2.6604716305380003 2.6604716305380003 2.6604716305380003 2.6604716305380003 2.6604716305380003 2.6604716305380003 2.6604716305380003 2.6604716305380003 </DataArray>
</PointData>
<CellData/>
</Piece>
</UnstructuredGrid>
</VTKFile>
