<?xml version="1.0" ?>
<VTKFile byte_order="LittleEndian" type="UnstructuredGrid" version="0.1">
<UnstructuredGrid>
<Piece NumberOfCells="0" NumberOfPoints="276">
<Points>
<DataArray NumberOfComponents="3" format="ascii" type="Float32">18.150336615148245 7.9557722513533138 3.0 9.2721698400789432 5.1953877168140217 3.0 52.632075612423783 8.0665605908602451 3.0 99.98085524766843 6.7777061443301072 3.0 160.50159646336425 7.2346462793960562 3.0 24.413124529686272 13.703286780304392 3.0 188.18161490799412 9.0851658825718093 3.0 170.93793345201621 20.798404645415584 3.0 178.5242808140955 21.351513443838545 3.0 72.087926717330021 19.586174738711126 3.0 96.76092500480479 19.828831878744996 3.0 137.45163102698916 20.965730564542387 3.0 88.978664370910465 26.791196493300731 3.0 97.501430998168175 33.693268247875537 3.0 17.295807473750557 37.225017844005244 3.0 50.275260033049129 37.517489066993662 3.0 101.83564590004357 46.308752962672074 3.0 62.669662168060782 49.44595971327842 3.0 10.116741654687306 54.538480525340624 3.0 40.66482189518505 59.051110293538407 3.0 130.85356788339561 63.57078527177579 3.0 66.00883997996155 65.802181478792292 3.0 94.626359559712071 66.669145985954543 3.0 136.54452004245178 69.426168644295984 3.0 45.203182786183966 69.673083148958511 3.0 36.912949396015406 72.070591168513914 3.0 21.572997414448452 76.220093861021098 3.0 182.38342668283377 73.762441476996955 3.0 6.9626499721968571 83.365722362355456 3.0 115.42149975160675 84.218542206313174 3.0 177.70739708652991 83.948434358975916 3.0 43.823387213428049 90.923686718555686 3.0 61.523179010220595 99.964602330527299 3.0 46.104332202238666 98.531115692652449 3.0 82.810116376610125 115.55001173758657 3.0 105.76130126280346 117.52685765089592 3.0 128.81367842871833 125.47603877445796 3.0 110.83744176190581 125.16719806373831 3.0 135.89102391664122 124.72279848340077 3.0 13.702205154800264 129.96498250213352 3.0 43.207996339159976 133.24853352612615 3.0 106.93844398139051 132.15319795010291 3.0 99.432046760137851 137.85025784136323 3.0 160.11665822153614 140.11029005938767 3.0 112.38470440600325 139.39455355992513 3.0 184.98838729745123 138.99340317245307 3.0 76.940144313395976 141.21780905111004 3.0 67.913436948187893 142.02265471545479 3.0 33.058267456577319 147.17246559745874 3.0 55.570040776924188 150.35048295097687 3.0 128.9817263708785 150.44179534856568 3.0 60.085037580544245 153.10107526930969 3.0 187.16225564997075 153.73908412382866 3.0 71.902637624437077 157.27239791525318 3.0 103.29430422813726 152.09268004513314 3.0 179.70836550444164 161.65902978123154 3.0 80.932959144458934 165.35205396793646 3.0 129.85380495142277 166.74006507958813 3.0 115.48068014994544 167.27768425526597 3.0 22.941758883777716 168.09072688339324 3.0 189.58558665282976 171.10942860955282 3.0 14.443009129848152 174.51205364407272 3.0 33.748959711071244 170.93350440687695 3.0 70.922743059156019 170.42966468045364 3.0 56.675205301147201 173.57846662718674 3.0 184.54309167576059 179.39736347207887 3.0 38.046305805118962 193.06492043986211 3.0 22.657131162637352 195.28982735559455 3.0 130.62780791324138 191.68470228492561 3.0 17.140338099231275 3.3900000954897935 2 5.0071801660547006 6.8675075572102333 2 54.339022091370815 2.429097942904879 2 104.54371735616786 5.487299637977558 2 158.56029199444961 2.9271421004356086 2 31.883102562534635 8.7423540254805747 2 189.38413055461956 14.445739180669737 2 166.80130019303201 12.373289571774635 2 185.03272345460593 17.646853667327179 2 69.377978686234982 24.347978821349241 2 91.571746684109499 22.829748683145056 2 141.24900634863567 27.448197929013045 2 86.699091430058715 35.249719272370896 2 100.61656010629858 37.149021727600562 2 21.828808975110061 41.615807166681464 2 43.613748724936315 38.258626557572903 2 105.87171512137819 37.914605954255492 2 56.178066749068662 46.891557859925321 2 5.4120196138687149 54.230144617882686 2 35.761564238149198 56.727188516166343 2 135.87102606841438 57.303721150646659 2 70.518884294518344 58.334223375819555 2 99.133377455818589 66.609302595923225 2 138.91353009891156 65.395268733289669 2 50.016370374114274 62.732618386044614 2 42.38991723788542 77.189001360197111 2 19.848197890838644 69.238586401925645 2 188.42239100462771 78.603778323607798 2 2.6765076069366587 80.438765198791543 2 114.09648669520904 75.793057661290177 2 169.12016236937041 83.845465734659541 2 52.533395434228645 92.059426431556489 2 62.620039357461025 93.952903983300487 2 41.200657317284801 103.32727329690422 2 82.08752224569082 110.88112251739905 2 101.61982357019198 121.39345378841034 2 124.0462201221999 117.71170488974205 2 111.34331957529862 120.53477296668666 2 134.83571155197785 129.33697562115239 2 8.357213839140206 127.70126529249598 2 43.839742140290937 124.5817086213565 2 110.88940149277289 134.8925039672944 2 93.21849917011086 132.13870020078969 2 156.20738084286981 137.54904424033728 2 111.87657255487321 145.98970335029017 2 178.80811734468014 143.34112578925635 2 81.89405783692817 140.59901330077224 2 71.268231315415221 147.53848050495574 2 41.189863347240561 150.43669616348524 2 46.671384862468969 149.00577535063141 2 137.83537344985663 152.79390134435471 2 64.126020637471782 155.59945583366812 2 189.1034516591331 147.45017998446252 2 67.298642946894844 149.92887079550019 2 108.51724602305765 159.01742020290476 2 177.02729497424747 157.74485367503408 2 86.218619736823499 168.88541502378939 2 134.84661716477459 168.90567333732236 2 122.1622323043905 171.46446347626727 2 16.31906213587213 166.21000977115079 2 191.60550514727211 162.82429993614195 2 11.33803423582567 170.91437269568897 2 36.707226525225131 179.00022352502566 2 72.409003303702178 179.49167824449137 2 52.438864965388987 182.03927023053896 2 193.20047628555429 180.73689422512422 2 35.77070932749136 186.65933613561887 2 22.596140830520032 190.64487796333347 2 131.58003663859921 196.36335404529771 2 22.532443851486363 9.3405722090455807 2 13.55913815508371 7.1868805244900775 2 47.992986337764428 7.0299488273263551 2 98.324003414537032 2.429097942904879 2 165.1563144008023 7.9089597623516168 2 29.569920294374661 14.006706911638403 2 184.91788124746188 12.546710257990231 2 173.4388807065078 16.351437153116056 2 180.23058441244245 16.915149726113995 2 67.384278047485012 19.925591069478475 2 92.40995138250274 18.025004272396952 2 142.18805421500559 20.691931565626501 2 89.65315186605693 31.421507532551257 2 94.344703931943144 30.241314966995052 2 21.838637634871741 36.028783183093886 2 52.044518091905843 41.887125167617775 2 100.24798297630166 41.900026019859013 2 61.885012892223479 44.767040149203709 2 13.729475590951633 57.585588901831791 2 44.710892117704951 61.235134113459175 2 131.24876223367841 58.805098411277555 2 61.542089705832218 67.094865439279815 2 91.377530192484983 63.596031813053301 2 131.95537023249219 69.786389874733615 2 41.78499312853306 72.530467509047426 2 39.766600985972445 68.178081457528961 2 17.728935658105936 79.017395114907927 2 180.72287800067488 78.199374678060806 2 11.18639496237577 81.18496756080286 2 120.32244572059516 83.125717710357591 2 173.46570929903041 86.016011877918174 2 47.384310788765418 94.055063597186646 2 56.989616364935877 101.1964616421329 2 48.838304605739822 102.33151593755919 2 83.53659920667512 120.22134285611587 2 110.21211226795744 115.87450665136384 2 125.19662901085346 122.41608677073118 2 106.7553232687149 127.4153030449267 2 140.38674529629765 126.03857446672262 2 14.349702390482912 134.63611661622596 2 45.833470843231872 129.30061790379554 2 102.59030981292909 129.79656652374229 2 97.818180696325328 133.43641128879065 2 162.60738965270602 144.0941879408264 2 108.33737192143133 141.86660054389293 2 183.66096274308836 143.55751190281535 2 79.60333499536209 145.14688223664103 2 63.369304372831365 143.41785089669233 2 37.000034372990058 148.96268570571078 2 52.597312104805887 153.69578396212896 2 131.64464953438821 154.49067800741381 2 58.927257145978416 147.37500638711114 2 188.63201289333179 158.24136231069002 2 70.842789497191617 152.80678152661295 2 102.82893447279243 156.82501948673507 2 184.09883360396017 159.91157803232147 2 78.184599500129167 169.23048567572454 2 129.60834535385791 162.06263028482283 2 117.15601365355279 163.06130041561923 2 23.297395937325877 172.83104728273608 2 192.69783108552431 167.54304607935612 2 11.198984829173414 177.98626341954676 2 37.219633168274136 174.17427777399627 2 66.778081404906146 172.76021768154837 2 55.172088274190848 178.05697190928018 2 185.5686323228405 174.79039142118975 2 33.533490646417128 194.56276684750605 2 26.767766587662251 197.5709020570951 2 134.31706491998358 188.68718731669614 2 12.744726804902305 2.429097942904879 2 3.1323345695292386 2.429097942904879 2 57.368315381827095 6.2118320225474966 2 106.84126698334428 9.7631985742031535 2 153.74113343010248 2.429097942904879 2 27.23142282640406 9.9776350543529784 2 191.90955003257983 18.59008736158216 2 168.60206210241407 16.753522974067511 2 184.30886225916609 22.450377521374097 2 71.606317831953305 28.650358166810211 2 86.719396702095906 22.583826804305403 2 145.13968878536838 24.539465336289837 2 91.665857415222973 35.761041861713558 2 95.794855723141893 38.227348911667725 2 25.795796848516943 39.018779523800184 2 47.216708440858362 41.504798557147772 2 105.1397672815956 42.716635843804021 2 57.162566825667021 51.647350788749847 2 2.429097942904879 50.4357576095138 2 36.672452536536817 61.537498865672553 2 139.80094596979251 60.208515070662571 2 69.722047549432816 63.049576663394767 2 101.01647394590066 62.270296139910954 2 135.3520846109069 62.123223058638175 2 46.273791432959015 65.542284956488103 2 47.028460167438958 73.884626686682793 2 17.632503757283423 73.561231483375209 2 187.1256684008398 73.9259245734346 2 4.2586911780966137 75.845885986174835 2 116.91037113622507 79.710986688560212 2 173.13408176676856 81.232553806287527 2 48.439709024665987 89.377052739045126 2 65.714713578675756 97.913331388149942 2 41.404393355824652 98.475815176257925 2 85.939250361303507 107.94044976163453 2 101.11910926089953 116.54752051208555 2 128.92497370556256 118.23447377646556 2 116.09587442414697 119.64658879168384 2 134.07774114741724 134.11453661496031 2 7.4737259110040632 132.42200425213636 2 41.142806638160884 128.43175580343458 2 113.08861902780947 130.56946134329635 2 90.702850818112182 128.05341707907007 2 153.06414334188321 133.91714140828606 2 107.03078357423432 146.53612016197582 2 179.39043623514181 138.51831684194019 2 86.571275241899457 139.28696083948546 2 72.583105744896031 142.98655762850274 2 40.465712175753403 145.69186923635829 2 51.357425500326002 148.40870739505212 2 133.74493198664794 150.17271481700968 2 66.814572647397213 159.63730189433628 2 191.28576746819439 151.64343513714692 2 62.952015153616117 149.4497105723359 2 107.51478662236563 154.26908988248414 2 180.45311827851333 154.18289990503752 2 85.922050700289688 164.03671508245415 2 131.36646918184616 172.29483463939314 2 117.3405436542766 171.51237576793798 2 18.780725721393598 170.39619743774111 2 188.02650107933712 166.27436734403224 2 11.465003176864139 166.05953457346035 2 32.635915291950724 176.27647628813401 2 72.984638229506942 174.68861726395241 2 49.896689406738481 177.77364927220643 2 189.06231521454171 178.1461068473092 2 32.272407899820713 189.92839452208116 2 23.392695981389661 185.87929786329246 2 126.87148251373067 197.55725774368995 2 </DataArray>
</Points>
<Cells>
<DataArray Name="connectivity" format="ascii" type="Int32">0</DataArray>
<DataArray Name="offsets" format="ascii" type="Int32">0</DataArray>
<DataArray Name="types" format="ascii" type="UInt8">1</DataArray>
</Cells>
<PointData>
<DataArray Name="Points" NumberOfComponents="3" format="ascii" type="Float32">18.150336615148245 7.9557722513533138 3.0 9.2721698400789432 5.1953877168140217 3.0 52.632075612423783 8.0665605908602451 3.0 99.98085524766843 6.7777061443301072 3.0 160.50159646336425 7.2346462793960562 3.0 24.413124529686272 13.703286780304392 3.0 188.18161490799412 9.0851658825718093 3.0 170.93793345201621 20.798404645415584 3.0 178.5242808140955 21.351513443838545 3.0 72.087926717330021 19.586174738711126 3.0 96.76092500480479 19.828831878744996 3.0 137.45163102698916 20.965730564542387 3.0 88.978664370910465 26.791196493300731 3.0 97.501430998168175 33.693268247875537 3.0 17.295807473750557 37.225017844005244 3.0 50.275260033049129 37.517489066993662 3.0 101.83564590004357 46.308752962672074 3.0 62.669662168060782 49.44595971327842 3.0 10.116741654687306 54.538480525340624 3.0 40.66482189518505 59.051110293538407 3.0 130.85356788339561 63.57078527177579 3.0 66.00883997996155 65.802181478792292 3.0 94.626359559712071 66.669145985954543 3.0 136.54452004245178 69.426168644295984 3.0 45.203182786183966 69.673083148958511 3.0 36.912949396015406 72.070591168513914 3.0 21.572997414448452 76.220093861021098 3.0 182.38342668283377 73.762441476996955 3.0 6.9626499721968571 83.365722362355456 3.0 115.42149975160675 84.218542206313174 3.0 177.70739708652991 83.948434358975916 3.0 43.823387213428049 90.923686718555686 3.0 61.523179010220595 99.964602330527299 3.0 46.104332202238666 98.531115692652449 3.0 82.810116376610125 115.55001173758657 3.0 105.76130126280346 117.52685765089592 3.0 128.81367842871833 125.47603877445796 3.0 110.83744176190581 125.16719806373831 3.0 135.89102391664122 124.72279848340077 3.0 13.702205154800264 129.96498250213352 3.0 43.207996339159976 133.24853352612615 3.0 106.93844398139051 132.15319795010291 3.0 99.432046760137851 137.85025784136323 3.0 160.11665822153614 140.11029005938767 3.0 112.38470440600325 139.39455355992513 3.0 184.98838729745123 138.99340317245307 3.0 76.940144313395976 141.21780905111004 3.0 67.913436948187893 142.02265471545479 3.0 33.058267456577319 147.17246559745874 3.0 55.570040776924188 150.35048295097687 3.0 128.9817263708785 150.44179534856568 3.0 60.085037580544245 153.10107526930969 3.0 187.16225564997075 153.73908412382866 3.0 71.902637624437077 157.27239791525318 3.0 103.29430422813726 152.09268004513314 3.0 179.70836550444164 161.65902978123154 3.0 80.932959144458934 165.35205396793646 3.0 129.85380495142277 166.74006507958813 3.0 115.48068014994544 167.27768425526597 3.0 22.941758883777716 168.09072688339324 3.0 189.58558665282976 171.10942860955282 3.0 14.443009129848152 174.51205364407272 3.0 33.748959711071244 170.93350440687695 3.0 70.922743059156019 170.42966468045364 3.0 56.675205301147201 173.57846662718674 3.0 184.54309167576059 179.39736347207887 3.0 38.046305805118962 193.06492043986211 3.0 22.657131162637352 195.28982735559455 3.0 130.62780791324138 191.68470228492561 3.0 17.140338099231275 3.3900000954897935 2 5.0071801660547006 6.8675075572102333 2 54.339022091370815 2.429097942904879 2 104.54371735616786 5.487299637977558 2 158.56029199444961 2.9271421004356086 2 31.883102562534635 8.7423540254805747 2 189.38413055461956 14.445739180669737 2 166.80130019303201 12.373289571774635 2 185.03272345460593 17.646853667327179 2 69.377978686234982 24.347978821349241 2 91.571746684109499 22.829748683145056 2 141.24900634863567 27.448197929013045 2 86.699091430058715 35.249719272370896 2 100.61656010629858 37.149021727600562 2 21.828808975110061 41.615807166681464 2 43.613748724936315 38.258626557572903 2 105.87171512137819 37.914605954255492 2 56.178066749068662 46.891557859925321 2 5.4120196138687149 54.230144617882686 2 35.761564238149198 56.727188516166343 2 135.87102606841438 57.303721150646659 2 70.518884294518344 58.334223375819555 2 99.133377455818589 66.609302595923225 2 138.91353009891156 65.395268733289669 2 50.016370374114274 62.732618386044614 2 42.38991723788542 77.189001360197111 2 19.848197890838644 69.238586401925645 2 188.42239100462771 78.603778323607798 2 2.6765076069366587 80.438765198791543 2 114.09648669520904 75.793057661290177 2 169.12016236937041 83.845465734659541 2 52.533395434228645 92.059426431556489 2 62.620039357461025 93.952903983300487 2 41.200657317284801 103.32727329690422 2 82.08752224569082 110.88112251739905 2 101.61982357019198 121.39345378841034 2 124.0462201221999 117.71170488974205 2 111.34331957529862 120.53477296668666 2 134.83571155197785 129.33697562115239 2 8.357213839140206 127.70126529249598 2 43.839742140290937 124.5817086213565 2 110.88940149277289 134.8925039672944 2 93.21849917011086 132.13870020078969 2 156.20738084286981 137.54904424033728 2 111.87657255487321 145.98970335029017 2 178.80811734468014 143.34112578925635 2 81.89405783692817 140.59901330077224 2 71.268231315415221 147.53848050495574 2 41.189863347240561 150.43669616348524 2 46.671384862468969 149.00577535063141 2 137.83537344985663 152.79390134435471 2 64.126020637471782 155.59945583366812 2 189.1034516591331 147.45017998446252 2 67.298642946894844 149.92887079550019 2 108.51724602305765 159.01742020290476 2 177.02729497424747 157.74485367503408 2 86.218619736823499 168.88541502378939 2 134.84661716477459 168.90567333732236 2 122.1622323043905 171.46446347626727 2 16.31906213587213 166.21000977115079 2 191.60550514727211 162.82429993614195 2 11.33803423582567 170.91437269568897 2 36.707226525225131 179.00022352502566 2 72.409003303702178 179.49167824449137 2 52.438864965388987 182.03927023053896 2 193.20047628555429 180.73689422512422 2 35.77070932749136 186.65933613561887 2 22.596140830520032 190.64487796333347 2 131.58003663859921 196.36335404529771 2 22.532443851486363 9.3405722090455807 2 13.55913815508371 7.1868805244900775 2 47.992986337764428 7.0299488273263551 2 98.324003414537032 2.429097942904879 2 165.1563144008023 7.9089597623516168 2 29.569920294374661 14.006706911638403 2 184.91788124746188 12.546710257990231 2 173.4388807065078 16.351437153116056 2 180.23058441244245 16.915149726113995 2 67.384278047485012 19.925591069478475 2 92.40995138250274 18.025004272396952 2 142.18805421500559 20.691931565626501 2 89.65315186605693 31.421507532551257 2 94.344703931943144 30.241314966995052 2 21.838637634871741 36.028783183093886 2 52.044518091905843 41.887125167617775 2 100.24798297630166 41.900026019859013 2 61.885012892223479 44.767040149203709 2 13.729475590951633 57.585588901831791 2 44.710892117704951 61.235134113459175 2 131.24876223367841 58.805098411277555 2 61.542089705832218 67.094865439279815 2 91.377530192484983 63.596031813053301 2 131.95537023249219 69.786389874733615 2 41.78499312853306 72.530467509047426 2 39.766600985972445 68.178081457528961 2 17.728935658105936 79.017395114907927 2 180.72287800067488 78.199374678060806 2 11.18639496237577 81.18496756080286 2 120.32244572059516 83.125717710357591 2 173.46570929903041 86.016011877918174 2 47.384310788765418 94.055063597186646 2 56.989616364935877 101.1964616421329 2 48.838304605739822 102.33151593755919 2 83.53659920667512 120.22134285611587 2 110.21211226795744 115.87450665136384 2 125.19662901085346 122.41608677073118 2 106.7553232687149 127.4153030449267 2 140.38674529629765 126.03857446672262 2 14.349702390482912 134.63611661622596 2 45.833470843231872 129.30061790379554 2 102.59030981292909 129.79656652374229 2 97.818180696325328 133.43641128879065 2 162.60738965270602 144.0941879408264 2 108.33737192143133 141.86660054389293 2 183.66096274308836 143.55751190281535 2 79.60333499536209 145.14688223664103 2 63.369304372831365 143.41785089669233 2 37.000034372990058 148.96268570571078 2 52.597312104805887 153.69578396212896 2 131.64464953438821 154.49067800741381 2 58.927257145978416 147.37500638711114 2 188.63201289333179 158.24136231069002 2 70.842789497191617 152.80678152661295 2 102.82893447279243 156.82501948673507 2 184.09883360396017 159.91157803232147 2 78.184599500129167 169.23048567572454 2 129.60834535385791 162.06263028482283 2 117.15601365355279 163.06130041561923 2 23.297395937325877 172.83104728273608 2 192.69783108552431 167.54304607935612 2 11.198984829173414 177.98626341954676 2 37.219633168274136 174.17427777399627 2 66.778081404906146 172.76021768154837 2 55.172088274190848 178.05697190928018 2 185.5686323228405 174.79039142118975 2 33.533490646417128 194.56276684750605 2 26.767766587662251 197.5709020570951 2 134.31706491998358 188.68718731669614 2 12.744726804902305 2.429097942904879 2 3.1323345695292386 2.429097942904879 2 57.368315381827095 6.2118320225474966 2 106.84126698334428 9.7631985742031535 2 153.74113343010248 2.429097942904879 2 27.23142282640406 9.9776350543529784 2 191.90955003257983 18.59008736158216 2 168.60206210241407 16.753522974067511 2 184.30886225916609 22.450377521374097 2 71.606317831953305 28.650358166810211 2 86.719396702095906 22.583826804305403 2 145.13968878536838 24.539465336289837 2 91.665857415222973 35.761041861713558 2 95.794855723141893 38.227348911667725 2 25.795796848516943 39.018779523800184 2 47.216708440858362 41.504798557147772 2 105.1397672815956 42.716635843804021 2 57.162566825667021 51.647350788749847 2 2.429097942904879 50.4357576095138 2 36.672452536536817 61.537498865672553 2 139.80094596979251 60.208515070662571 2 69.722047549432816 63.049576663394767 2 101.01647394590066 62.270296139910954 2 135.3520846109069 62.123223058638175 2 46.273791432959015 65.542284956488103 2 47.028460167438958 73.884626686682793 2 17.632503757283423 73.561231483375209 2 187.1256684008398 73.9259245734346 2 4.2586911780966137 75.845885986174835 2 116.91037113622507 79.710986688560212 2 173.13408176676856 81.232553806287527 2 48.439709024665987 89.377052739045126 2 65.714713578675756 97.913331388149942 2 41.404393355824652 98.475815176257925 2 85.939250361303507 107.94044976163453 2 101.11910926089953 116.54752051208555 2 128.92497370556256 118.23447377646556 2 116.09587442414697 119.64658879168384 2 134.07774114741724 134.11453661496031 2 7.4737259110040632 132.42200425213636 2 41.142806638160884 128.43175580343458 2 113.08861902780947 130.56946134329635 2 90.702850818112182 128.05341707907007 2 153.06414334188321 133.91714140828606 2 107.03078357423432 146.53612016197582 2 179.39043623514181 138.51831684194019 2 86.571275241899457 139.28696083948546 2 72.583105744896031 142.98655762850274 2 40.465712175753403 145.69186923635829 2 51.357425500326002 148.40870739505212 2 133.74493198664794 150.17271481700968 2 66.814572647397213 159.63730189433628 2 191.28576746819439 151.64343513714692 2 62.952015153616117 149.4497105723359 2 107.51478662236563 154.26908988248414 2 180.45311827851333 154.18289990503752 2 85.922050700289688 164.03671508245415 2 131.36646918184616 172.29483463939314 2 117.3405436542766 171.51237576793798 2 18.780725721393598 170.39619743774111 2 188.02650107933712 166.27436734403224 2 11.465003176864139 166.05953457346035 2 32.635915291950724 176.27647628813401 2 72.984638229506942 174.68861726395241 2 49.896689406738481 177.77364927220643 2 189.06231521454171 178.1461068473092 2 32.272407899820713 189.92839452208116 2 23.392695981389661 185.87929786329246 2 126.87148251373067 197.55725774368995 2 </DataArray>