<?xml version="1.0" ?>
<VTKFile byte_order="LittleEndian" type="UnstructuredGrid" version="0.1">
<UnstructuredGrid>
<Piece NumberOfCells="0" NumberOfPoints="138">
<Points>
<DataArray NumberOfComponents="3" format="ascii" type="Float32">19.293609772215877 7.4228735909001191 3.0 10.757776154805216 4.9422212585338849 3.0 51.803285962123802 7.577284561250746 3.0 99.596238093531724 4.1371669468872527 3.0 161.35635026479491 7.1089817686312911 3.0 25.832961224769193 12.914721989684645 3.0 187.53779272419038 10.281051504535885 3.0 170.77190201744298 19.196437888278925 3.0 179.33314799838229 20.334792679774733 3.0 71.620188495178951 19.385928499942999 3.0 96.18012503454058 20.134104209486502 3.0 139.24197286328567 21.461830847646137 3.0 89.411724016303168 29.321315866490838 3.0 96.874000099858208 33.776313078293569 3.0 19.3455904251534 36.407866964822603 3.0 50.540412980629213 39.844136622104777 3.0 101.59067397356262 43.987836910850973 3.0 62.139983455846583 48.440646010015627 3.0 10.477561431621528 55.354134766252265 3.0 41.412710435874189 60.510512619128775 3.0 131.68822486782713 62.352751221622398 3.0 66.001844657308951 65.040674059882974 3.0 93.653436106707829 65.323284868030115 3.0 136.80055967506186 70.164734301300314 3.0 44.433270458914613 69.142373858469924 3.0 38.40723008719246 71.415332198250411 3.0 20.236683526670856 76.381800281274337 3.0 182.56176650984187 75.211535693713913 3.0 7.6063440255748658 82.744080129764356 3.0 116.26541678217376 83.377135741693536 3.0 176.7263811951853 85.946633900473074 3.0 45.435466982253047 91.91661798473082 3.0 60.805695178023598 99.94911626406892 3.0 46.300743557946483 98.959620491611432 3.0 82.963733331537171 116.39936096785615 3.0 106.82471734723538 117.66846424130345 3.0 127.59434450319498 124.2826733808411 3.0 109.6073706914031 125.442650555033 3.0 137.83144886501029 125.5050677265389 3.0 13.420829238585256 131.49331648556551 3.0 42.846250352138789 132.77679295287783 3.0 106.44582312289604 131.40588228857783 3.0 98.103425161036043 135.94531319846601 3.0 160.17552922163986 140.86881677511121 3.0 111.22534452021117 140.07575593413048 3.0 184.46943608313626 140.28940686927058 3.0 77.52139366093931 142.35116255156805 3.0 66.974812989635765 142.64505312557918 3.0 35.544180439200289 148.25392816523251 3.0 53.633382141718243 150.43652535416811 3.0 130.44225099364132 151.66517362563377 3.0 61.175770254006018 151.96066003365971 3.0 188.11381211849604 154.52701978171592 3.0 70.668016630350905 155.00302215866748 3.0 103.86395775704911 153.75405275592033 3.0 180.92206067980021 161.09972675611257 3.0 80.478264639484081 166.46008884371236 3.0 129.89830689282917 165.71900254330072 3.0 117.03776106219925 166.59654926150694 3.0 22.475048335896211 169.36120626366733 3.0 190.67907820963913 170.12947285740975 3.0 13.592696092901727 175.28334811758455 3.0 34.71007606879342 172.29330885487673 3.0 70.467461130093383 172.35953159735118 3.0 55.90536214443128 175.55431619728193 3.0 185.85256617084812 178.7812810100248 3.0 36.782809558123326 193.19020470095299 3.0 24.098524903480758 195.74955786021951 3.0 131.38660556996939 191.62144948738043 3.0 15.991758009409715 2.8604716305380005 2 5.1313906450554692 4.6791421961966098 2 54.881376120727076 2.8604716305380005 2 104.643666753302 6.6391914648819901 2 157.65839991728731 2.8604716305380005 2 30.047223121082595 9.1770676215560787 2 189.46971308704974 15.572273730812542 2 167.99641683906358 14.294056345731088 2 184.7577342690403 18.816811658234275 2 69.64175090713681 24.659902557756549 2 90.95494939738802 22.240233168162664 2 141.96756890425638 26.392123839503917 2 87.931310856330143 34.756850765642497 2 99.518025808955827 38.750078947039754 2 23.552063349400147 40.154219182992932 2 44.941009765786468 39.231650900180931 2 105.19203824668001 39.481622726941339 2 56.538463632665938 47.83300305317659 2 5.164775921362879 53.480375740629462 2 36.333106046318093 58.074474440093063 2 136.29915515203024 59.054670667692783 2 69.59085634111868 60.698363857053778 2 99.261085796316621 65.857082383198261 2 137.6944026114875 64.602819302996764 2 47.863045455532436 64.673684818008567 2 43.085194168332009 74.611535778578371 2 19.385653725741459 70.812921485498009 2 187.73314272700208 77.446156642489626 2 2.8604716305380005 79.709868050658187 2 115.31107241155451 77.82502897161207 2 171.5292486439034 83.78209291960124 2 51.06097139047607 91.616013731300427 2 63.424724129023502 94.961587171997891 2 41.623732247738907 102.10003893002178 2 83.094135375466607 110.76734018743851 2 101.81849168714585 120.25052401962549 2 125.45729300936243 119.07021967103942 2 111.82387398602785 120.26416948278816 2 134.8418543967114 130.2798962762603 2 8.3120325214000061 129.11910948814631 2 41.75045353718923 127.05094647704068 2 111.18987317172507 134.44324119592827 2 94.135900642767098 131.94588674445393 2 155.94874414052134 137.14444425854538 2 110.8003056477356 145.69301948975058 2 179.18586643678313 142.24403076052255 2 82.837936286796392 140.48809055307692 2 70.700370092501984 146.86997326305348 2 40.781060307017754 150.33258332775745 2 48.292153061021715 148.64417547622659 2 136.04336250920096 152.26867387781485 2 64.650505601745408 156.43566543151763 2 190.29853955254708 149.33507700118602 2 66.722993646874755 150.98225248937058 2 107.94876170375713 157.63361967518799 2 177.60665834566794 156.54508405586182 2 85.949883890485268 167.80100104672579 2 133.85960356129041 169.72459756383822 2 120.49763012533815 171.04244274089345 2 17.171299024248121 167.4620206478547 2 190.97218371909466 164.47031148682751 2 11.461571696334621 170.06846829437927 2 35.752539432973926 177.82954700893572 2 72.382281543742323 177.65765631724881 2 52.650001805746335 180.15206475820111 2 191.31026403953598 180.11860194631868 2 33.968104742009267 188.31023548360525 2 23.06863674197178 190.20736632677233 2 130.21334504513317 197.13118302194164 2 </DataArray>
</Points>
<Cells>
<DataArray Name="connectivity" format="ascii" type="Int32">0</DataArray>
<DataArray Name="offsets" format="ascii" type="Int32">0</DataArray>
<DataArray Name="types" format="ascii" type="UInt8">1</DataArray>
</Cells>
<PointData>
<DataArray Name="Points" NumberOfComponents="3" format="ascii" type="Float32">19.293609772215877 7.4228735909001191 3.0 10.757776154805216 4.9422212585338849 3.0 51.803285962123802 7.577284561250746 3.0 99.596238093531724 4.1371669468872527 3.0 161.35635026479491 7.1089817686312911 3.0 25.832961224769193 12.914721989684645 3.0 187.53779272419038 10.281051504535885 3.0 170.77190201744298 19.196437888278925 3.0 179.33314799838229 20.334792679774733 3.0 71.620188495178951 19.385928499942999 3.0 96.18012503454058 20.134104209486502 3.0 139.24197286328567 21.461830847646137 3.0 89.411724016303168 29.321315866490838 3.0 96.874000099858208 33.776313078293569 3.0 19.3455904251534 36.407866964822603 3.0 50.540412980629213 39.844136622104777 3.0 101.59067397356262 43.987836910850973 3.0 62.139983455846583 48.440646010015627 3.0 10.477561431621528 55.354134766252265 3.0 41.412710435874189 60.510512619128775 3.0 131.68822486782713 62.352751221622398 3.0 66.001844657308951 65.040674059882974 3.0 93.653436106707829 65.323284868030115 3.0 136.80055967506186 70.164734301300314 3.0 44.433270458914613 69.142373858469924 3.0 38.40723008719246 71.415332198250411 3.0 20.236683526670856 76.381800281274337 3.0 182.56176650984187 75.211535693713913 3.0 7.6063440255748658 82.744080129764356 3.0 116.26541678217376 83.377135741693536 3.0 176.7263811951853 85.946633900473074 3.0 45.435466982253047 91.91661798473082 3.0 60.805695178023598 99.94911626406892 3.0 46.300743557946483 98.959620491611432 3.0 82.963733331537171 116.39936096785615 3.0 106.82471734723538 117.66846424130345 3.0 127.59434450319498 124.2826733808411 3.0 109.6073706914031 125.442650555033 3.0 137.83144886501029 125.5050677265389 3.0 13.420829238585256 131.49331648556551 3.0 42.846250352138789 132.77679295287783 3.0 106.44582312289604 131.40588228857783 3.0 98.103425161036043 135.94531319846601 3.0 160.17552922163986 140.86881677511121 3.0 111.22534452021117 140.07575593413048 3.0 184.46943608313626 140.28940686927058 3.0 77.52139366093931 142.35116255156805 3.0 66.974812989635765 142.64505312557918 3.0 35.544180439200289 148.25392816523251 3.0 53.633382141718243 150.43652535416811 3.0 130.44225099364132 151.66517362563377 3.0 61.175770254006018 151.96066003365971 3.0 188.11381211849604 154.52701978171592 3.0 70.668016630350905 155.00302215866748 3.0 103.86395775704911 153.75405275592033 3.0 180.92206067980021 161.09972675611257 3.0 80.478264639484081 166.46008884371236 3.0 129.89830689282917 165.71900254330072 3.0 117.03776106219925 166.59654926150694 3.0 22.475048335896211 169.36120626366733 3.0 190.67907820963913 170.12947285740975 3.0 13.592696092901727 175.28334811758455 3.0 34.71007606879342 172.29330885487673 3.0 70.467461130093383 172.35953159735118 3.0 55.90536214443128 175.55431619728193 3.0 185.85256617084812 178.7812810100248 3.0 36.782809558123326 193.19020470095299 3.0 24.098524903480758 195.74955786021951 3.0 131.38660556996939 191.62144948738043 3.0 15.991758009409715 2.8604716305380005 2 5.1313906450554692 4.6791421961966098 2 54.881376120727076 2.8604716305380005 2 104.643666753302 6.6391914648819901 2 157.65839991728731 2.8604716305380005 2 30.047223121082595 9.1770676215560787 2 189.46971308704974 15.572273730812542 2 167.99641683906358 14.294056345731088 2 184.7577342690403 18.816811658234275 2 69.64175090713681 24.659902557756549 2 90.95494939738802 22.240233168162664 2 141.96756890425638 26.392123839503917 2 87.931310856330143 34.756850765642497 2 99.518025808955827 38.750078947039754 2 23.552063349400147 40.154219182992932 2 44.941009765786468 39.231650900180931 2 105.19203824668001 39.481622726941339 2 56.538463632665938 47.83300305317659 2 5.164775921362879 53.480375740629462 2 36.333106046318093 58.074474440093063 2 136.29915515203024 59.054670667692783 2 69.59085634111868 60.698363857053778 2 99.261085796316621 65.857082383198261 2 137.6944026114875 64.602819302996764 2 47.863045455532436 64.673684818008567 2 43.085194168332009 74.611535778578371 2 19.385653725741459 70.812921485498009 2 187.73314272700208 77.446156642489626 2 2.8604716305380005 79.709868050658187 2 115.31107241155451 77.82502897161207 2 171.5292486439034 83.78209291960124 2 51.06097139047607 91.616013731300427 2 63.424724129023502 94.961587171997891 2 41.623732247738907 102.10003893002178 2 83.094135375466607 110.76734018743851 2 101.81849168714585 120.25052401962549 2 125.45729300936243 119.07021967103942 2 111.82387398602785 120.26416948278816 2 134.8418543967114 130.2798962762603 2 8.3120325214000061 129.11910948814631 2 41.75045353718923 127.05094647704068 2 111.18987317172507 134.44324119592827 2 94.135900642767098 131.94588674445393 2 155.94874414052134 137.14444425854538 2 110.8003056477356 145.69301948975058 2 179.18586643678313 142.24403076052255 2 82.837936286796392 140.48809055307692 2 70.700370092501984 146.86997326305348 2 40.781060307017754 150.33258332775745 2 48.292153061021715 148.64417547622659 2 136.04336250920096 152.26867387781485 2 64.650505601745408 156.43566543151763 2 190.29853955254708 149.33507700118602 2 66.722993646874755 150.98225248937058 2 107.94876170375713 157.63361967518799 2 177.60665834566794 156.54508405586182 2 85.949883890485268 167.80100104672579 2 133.85960356129041 169.72459756383822 2 120.49763012533815 171.04244274089345 2 17.171299024248121 167.4620206478547 2 190.97218371909466 164.47031148682751 2 11.461571696334621 170.06846829437927 2 35.752539432973926 177.82954700893572 2 72.382281543742323 177.65765631724881 2 52.650001805746335 180.15206475820111 2 191.31026403953598 180.11860194631868 2 33.968104742009267 188.31023548360525 2 23.06863674197178 190.20736632677233 2 130.21334504513317 197.13118302194164 2 </DataArray>
<DataArray Name="forces" NumberOfComponents="3" format="ascii" type="Float32">0.0023946389184075815 0.0033086280564539315 0.0 -0.0012622391425863586 0.0016171394693657597 0.0 -0.00088539842280671002 0.0013582805148691019 0.0 0.0 0.0 0.0 0.00084987284668050045 0.0009774622980402456 0.0 0.0 0.0 0.0 0.0 0.0 0.0 0.0 0.0 0.0 -4.3619327442591606e-05 1.2206149543305354e-05 0.0 -5.6026611948623687e-05 3.4119376935645446e-05 0.0 -0.00049705190910895617 -0.00097057156120473561 0.0 0.0 0.0 0.0 0.0 0.0 0.0 0.0 0.0 0.0 0.0 0.0 0.0 -8.1272041479485147e-05 -0.00052693589828933817 0.0 0.0 0.0 0.0 0.00063449630316239907 6.8829036034388135e-05 0.0 0.0 0.0 0.0 0.0 0.0 0.0 0.0 0.0 0.0 0.0 0.0 0.0 0.0 0.0 0.0 -2.7671098511712845e-05 0.00017218270857213204 0.0 -7.6220771667374543e-05 9.930882560558179e-05 0.0 0.0 0.0 0.0 0.0 0.0 0.0 0.0 0.0 0.0 0.0 0.0 0.0 0.0 0.0 0.0 -0.0016825910318022537 -0.0022101314545030855 0.0 0.0 0.0 0.0 -9.6823860625247979e-05 0.00018438582799578735 0.0 0.0 0.0 0.0 0.0 0.0 0.0 0.0 0.0 0.0 0.0 0.0 0.0 0.0 0.0 0.0 0.0 0.0 0.0 0.0 0.0 0.0 0.00058071254947964792 0.00020352669405904856 0.0 -0.00014310777042786908 -9.1634820676884384e-05 0.0 0.0 0.0 0.0 0.0 0.0 0.0 2.6989351513639826e-05 -0.00013106788007458795 0.0 0.0 0.0 0.0 0.0 0.0 0.0 0.0 0.0 0.0 0.0 0.0 0.0 0.0011728604164492273 0.00039380976483160908 0.0 0.0 0.0 0.0 0.0 0.0 0.0 0.0 0.0 0.0 0.0 0.0 0.0 0.0 0.0 0.0 0.0 0.0 0.0 0.0 0.0 0.0 0.0 0.0 0.0 0.0 0.0 0.0 0.0 0.0 0.0 -0.00073857567788300949 0.014260117298003409 0.0 0.0 0.0 0.0 0.0 0.0 0.0 0.0 0.0 0.0 0.0 0.0 0.0 0.0054887087968920473 -6.2696323028557636e-05 0.0 0.0 0.0 0.0 0.0 0.0 0.0 0.0 0.0 0.0 0.001375945018778549 -0.0048097535674209947 0.0 -0.0025083447945997719 -0.00011601395839869641 0.0 0.00088539842280671002 -0.0013582805148691019 0.0 0.0 0.0 0.0 -0.00084987284668050045 -0.0009774622980402456 0.0 0.0 0.0 0.0 0.0 0.0 0.0 0.0 0.0 0.0 4.3619327442591606e-05 -1.2206149543305354e-05 0.0 -3.792704912251338e-05 0.00010109939057017242 0.0 -0.0013423756451661439 0.00054056387631714784 0.0 0.0 0.0 0.0 0.0 0.0 0.0 0.0 0.0 0.0 0.0 0.0 0.0 0.0 0.0 0.0 0.0 0.0 0.0 -0.00063449630316239907 -6.8829036034388135e-05 0.0 0.0 0.0 0.0 0.0 0.0 0.0 0.0 0.0 0.0 0.0 0.0 0.0 0.0 0.0 0.0 2.7671098511712845e-05 -0.00017218270857213204 0.0 7.6220771667374543e-05 -9.930882560558179e-05 0.0 0.0 0.0 0.0 0.0 0.0 0.0 0.0 0.0 0.0 0.0 0.0 0.0 0.0 0.0 0.0 -0.0015037584275197503 -0.00062703961168995696 0.0 0.0 0.0 0.0 9.6823860625247979e-05 -0.00018438582799578735 0.0 0.0 0.0 0.0 0.0 0.0 0.0 0.0 0.0 0.0 0.0 0.0 0.0 0.0 0.0 0.0 0.0 0.0 0.0 0.0 0.0 0.0 0.00025091029960035925 -0.00022963856303944392 0.0 0.0001417892759351903 -0.00011658351183257439 0.0 0.0 0.0 0.0 0.0 0.0 0.0 -2.5670857020961058e-05 0.00033928621258404672 0.0 0.0 0.0 0.0 0.0 0.0 0.0 2.9619059484107414e-05 -3.0623664791261036e-05 0.0 0.0 0.0 0.0 -0.00032295942742805123 0.00051866784963380255 0.0 0.0 0.0 0.0 0.0 0.0 0.0 0.0 0.0 0.0 -2.9619059484107414e-05 3.0623664791261036e-05 0.0 0.0 0.0 0.0 0.0 0.0 0.0 0.0 0.0 0.0 0.0 0.0 0.0 0.0 0.0 0.0 0.0 0.0 0.0 0.00073857567788300949 -0.014260117298003409 0.0 0.0 0.0 0.0 0.0 0.0 0.0 0.0 0.0 0.0 0.0 0.0 0.0 -0.012922032248296139 0.028007377811333802 0.0 0.0 0.0 0.0 0.00038328988641586577 -8.8805947929768928e-05 0.0 0.0 0.0 0.0 </DataArray>
<DataArray Name="radii" format="ascii" type="Float32">2.8604716305380005 2.8604716305380005 2.8604716305380005 2.8604716305380005 2.8604716305380005 2.8604716305380005 2.8604716305380005 2.8604716305380005 2.8604716305380005 2.8604716305380005 2.8604716305380005 2.8604716305380005 2.8604716305380005 2.8604716305380005 2.8604716305380005 2.8604716305380005 2.8604716305380005 2.8604716305380005 2.8604716305380005 2.8604716305380005 2.8604716305380005 2.8604716305380005 2.8604716305380005 2.8604716305380005 2.8604716305380005 2.8604716305380005 2.8604716305380005 2.8604716305380005 2.8604716305380005 2.8604716305380005 2.8604716305380005 2.8604716305380005 2.8604716305380005 2.8604716305380005 2.8604716305380005 2.8604716305380005 2.8604716305380005 2.8604716305380005 2.8604716305380005 2.8604716305380005 2.8604716305380005 2.8604716305380005 2.8604716305380005 2.8604716305380005 2.8604716305380005 2.8604716305380005 2.8604716305380005 2.8604716305380005 2.8604716305380005 2.8604716305380005 2.8604716305380005 2.8604716305380005 2.8604716305380005 2.8604716305380005 2.8604716305380005 2.8604716305380005 2.8604716305380005 2.8604716305380005 2.8604716305380005 2.8604716305380005 2.8604716305380005 2.8604716305380005 2.8604716305380005 2.8604716305380005 2.8604716305380005 2.8604716305380005 2.8604716305380005 2.8604716305380005 2.8604716305380005 2.8604716305380005 2.8604716305380005 2.8604716305380005 2.8604716305380005 2.8604716305380005 2.8604716305380005 2.8604716305380005 2.8604716305380005 2.8604716305380005 2.8604716305380005 2.8604716305380005 2.8604716305380005 2.8604716305380005 2.8604716305380005 2.8604716305380005 2.8604716305380005 2.8604716305380005 2.8604716305380005 2.8604716305380005 2.8604716305380005 2.8604716305380005 2.8604716305380005 2.8604716305380005 2.8604716305380005 2.8604716305380005 2.8604716305380005 2.8604716305380005 2.8604716305380005 2.8604716305380005 2.8604716305380005 2.8604716305380005 2.8604716305380005 2.8604716305380005 2.8604716305380005 2.8604716305380005 2.8604716305380005 2.8604716305380005 2.8604716305380005 2.8604716305380005 2.8604716305380005 2.8604716305380005 2.8604716305380005 2.8604716305380005 2.8604716305380005 2.8604716305380005 2.8604716305380005 2.8604716305380005 2.8604716305380005 2.8604716305380005 2.8604716305380005 2.8604716305380005 2.8604716305380005 2.8604716305380005 2.8604716305380005 2.8604716305380005 2.8604716305380005 2.8604716305380005 2.8604716305380005 2.8604716305380005 2.8604716305380005 2.8604716305380005 2.8604716305380005 2.8604716305380005 2.8604716305380005 2.8604716305380005 2.8604716305380005 2.8604716305380005 2.8604716305380005 2.8604716305380005 </DataArray>
</PointData>
<CellData/>
</Piece>
</UnstructuredGrid>
</VTKFile>
