<?xml version="1.0" ?>
<VTKFile byte_order="LittleEndian" type="UnstructuredGrid" version="0.1">
<UnstructuredGrid>
<Piece NumberOfCells="0" NumberOfPoints="422">
<Points>
<DataArray NumberOfComponents="3" format="ascii" type="Float32">7.6420792546559664 11.657931540058101 3.0 54.572515696149601 10.266256952703548 3.0 97.879627552429582 9.6991432133850246 3.0 159.84512105256729 11.727764091832704 3.0 187.51058487261827 3.5105177239540124 3.0 170.92952859587416 20.531353622070263 3.0 180.17285621505965 22.096836273976574 3.0 134.30046555047412 20.508020581454392 3.0 87.778575584579329 27.129861043637852 3.0 98.875359575556544 28.738200649138889 3.0 15.86764610973786 37.790697669025079 3.0 49.435166551006532 37.035308658140927 3.0 62.985694115589922 51.911031518667599 3.0 8.0451781614673177 55.048169362845769 3.0 40.435689602790525 57.388048950076097 3.0 128.46049411753756 62.799814265877664 3.0 66.138729964927464 67.954770476135337 3.0 50.702133817568345 71.223964630510125 3.0 33.06906330022629 72.469338417924405 3.0 22.600733105795214 74.216085057019768 3.0 182.6293799718261 74.595237133481987 3.0 111.99673102066197 85.647242833504649 3.0 39.169846574063911 88.845134111725031 3.0 61.663856868331145 100.38530299801785 3.0 46.201900274548372 97.609500880611037 3.0 85.416714702347761 116.70261661632867 3.0 103.66496670722039 114.12022273908339 3.0 128.08269083221649 125.55987480762143 3.0 113.03472869358956 124.20000364936213 3.0 15.731508981052583 126.34596112537315 3.0 107.01126747118064 133.2700627600197 3.0 100.85754222430224 137.43564518383744 3.0 160.30227461081242 139.45505785298846 3.0 119.70431638262711 139.3207505651875 3.0 76.903866794683822 137.3944022012638 3.0 68.145160987312195 138.78976064716656 3.0 53.201880533420976 147.1045038789716 3.0 125.22466906718071 148.75546886021201 3.0 57.305238631561608 158.43632312546706 3.0 186.48581610244565 147.53049410648265 3.0 75.309513765957249 161.65227515244857 3.0 101.22547178233616 150.86457842294064 3.0 81.316941698954693 163.80480406421898 3.0 131.78866942383877 168.24844047891395 3.0 113.56339591985524 169.63807094543998 3.0 187.92557597642559 173.65045364399177 3.0 17.522098437660027 177.92142298248044 3.0 70.313836460872366 167.2454339609443 3.0 54.501303901129376 171.1285700789241 3.0 40.326033226536047 189.94371793893603 3.0 20.331362535123692 196.99580336947147 3.0 131.9196210556423 191.2955698291791 3.0 22.40633414408995 3.0041966305285395 2 55.29281857709028 3.0041966305285395 2 106.54713320521536 3.0041966305285395 2 161.25198528512999 3.0041966305285395 2 37.424714214588263 10.66888782272701 2 191.59195235729317 13.259987515604799 2 167.26440117060937 11.509768760574525 2 186.21918822330915 14.763741686126712 2 69.982213941394519 25.593241277399017 2 94.70232005820219 18.193061358242247 2 143.50228541528978 25.518660818257764 2 79.792291390467909 35.027824172663536 2 100.76297609953518 33.770143242034166 2 44.415885126982232 34.036270424154317 2 54.549513596517336 44.888359171550938 2 3.0041966305285395 58.108981062603036 2 35.333413349463896 53.929218017573085 2 135.91595525073853 54.770248929234775 2 67.59389165529366 55.224205971767724 2 139.00663583238378 65.907713519994928 2 50.544108974152998 58.089484988236649 2 39.469189358448482 82.194870373984287 2 21.735531019819121 68.542340659496276 2 191.5664884358201 78.344901099768393 2 3.0041966305285395 76.97910009669674 2 113.28234816506422 74.197090492195741 2 166.64355434463968 84.450543310977608 2 54.597382742684793 89.478113496809925 2 63.479697555071674 94.428802850557702 2 40.932854624034405 105.543181132596 2 97.791887951088654 122.13182769792716 2 122.01230816246067 112.23670269052543 2 113.14647783736962 118.57578209419201 2 136.11522597292461 130.57481447119591 2 10.215356794699897 125.15907435979179 2 49.361650573390364 118.58862078281545 2 112.44378144243645 134.14766289165706 2 88.488004349044843 132.58285392389595 2 155.50678791555484 136.30398296070504 2 111.97447397357453 148.11199021200591 2 85.338237574813476 143.05929861155258 2 76.54937315427739 148.51918707582428 2 138.21520319329386 156.44358254360563 2 66.637952470885523 154.01430727864107 2 69.000982594308738 149.3394324775752 2 107.11471319366518 161.16562247015486 2 137.34741248537969 169.38513866114482 2 123.18853198982757 173.21880891954387 2 6.6069470085237096 173.7382418143354 2 39.865261023729616 177.63933368692832 2 74.013808540403559 182.60522217065898 2 52.591196910113744 186.07444772608005 2 36.054128489978055 186.53334613611997 2 132.10600310693295 196.99580336947147 2 45.229963864067642 8.3078656057263434 2 100.80465258569394 3.0041966305285395 2 167.07956005961103 3.0041966305285395 2 34.457439105316986 18.352264392943361 2 182.20685515471442 10.147575560072784 2 172.07646660773125 14.038746131371145 2 177.04562144194469 11.846323682480241 2 143.43523077415196 15.771257623532197 2 83.714510961775161 30.877414020934491 2 93.044665218078308 28.237693058414546 2 54.687103792632193 39.081940810536025 2 99.021078918271627 44.585772068874491 2 45.924841958684127 54.616389553177136 2 130.88069557271143 57.495780705203565 2 60.752983768557435 69.057302271751652 2 125.70184952886076 68.869114718112485 2 38.448307216472436 71.783958256528038 2 36.18767453782668 66.843665140575993 2 18.044468828643627 82.638936916156482 2 12.623608515925893 81.33079131637561 2 123.33431644082056 85.488524946700139 2 171.3591972550208 87.446301341753184 2 47.973001524252872 92.546929984783972 2 56.090402517543126 101.66823332484448 2 51.269994873226352 106.10026154878001 2 110.26964934635926 107.81095427326478 2 122.97923552594666 124.60765827970236 2 108.00589420825028 128.30303869940099 2 97.888778878140627 127.62837193264278 2 97.816010039500554 133.36238673396917 2 104.15177040336721 141.26307172565987 2 186.34034297223846 142.22992341005988 2 82.227260706888799 147.8831678993231 2 63.154749514141471 140.26791479629173 2 134.01513563144366 152.61000769605911 2 55.160023388155025 141.63125303631563 2 188.71548402540947 155.98928574943207 2 77.70932819043945 153.82361926411369 2 179.50990688082953 160.69232563939531 2 77.051117545640821 167.11091158030726 2 129.7313792569395 163.09002404040493 2 23.726284653901846 176.28849870634977 2 191.76008256288395 170.39305796666247 2 6.4266628082879409 179.59725446185709 2 37.244701069999607 172.4228646462341 2 65.381229043466035 170.20747174616491 2 58.039716621648459 175.81919221183921 2 32.070747623485026 196.92635577142485 2 28.470053938599474 192.25697836927074 2 134.1114229921406 186.16128061561449 2 12.361034951262468 3.0041966305285395 2 3.0041966305285395 3.0041966305285395 2 61.02577062807115 3.6626370145650013 2 109.75204916931763 9.5711800012307808 2 149.99681375649902 3.0041966305285395 2 29.898222199418203 8.155579172178987 2 190.78817856156687 19.01761681398936 2 166.96025686695253 16.917067186445287 2 86.167305813447243 19.519253506825191 2 149.35277891834519 25.79407280186042 2 90.83010628943228 38.195894233439567 2 96.19876267332188 38.812938830887894 2 44.502887898818976 39.965417627078303 2 110.53906075686186 44.910836795581503 2 58.204755108055991 54.834492731104085 2 3.0041966305285395 46.132172773389897 2 36.382392279680793 61.193564604007058 2 141.78379498036745 55.475763551786521 2 67.765507308793119 60.712261305204962 2 138.50954912914614 59.986740031982684 2 50.788580161146584 63.47273227351733 2 52.835579999983267 76.621951524558298 2 15.918445068553009 71.018015499760622 2 188.3025067852287 73.904174148777983 2 6.9042732430400457 72.850178104093288 2 112.95197158315077 80.003791415407576 2 171.87756175232042 80.026134986710574 2 49.54542107847108 87.411047666079142 2 36.661193432693864 95.614857091289224 2 86.987534365440141 104.84392729216381 2 98.625932417719412 110.67101971277822 2 118.10961378762315 116.16912946638648 2 133.14874348942621 135.59871304553064 2 113.60600448695203 129.46044991599658 2 88.739748385909024 127.08126702310061 2 105.84341853948087 146.13979788049869 2 178.16258940256978 134.3280642417653 2 87.463247985027834 137.69788473799281 2 73.135389952158349 140.50879821545007 2 132.61857838768492 147.14897734097573 2 67.101370412511969 163.34890812639793 2 63.481638723049294 149.0890067190756 2 112.08143967395667 153.81823004962678 2 180.6854760939049 149.72854876668393 2 134.16329643231794 174.44536036502575 2 117.72569014756408 173.25513947008827 2 21.207901872598374 167.08200511086844 2 186.51645067667494 164.53603186355775 2 33.95850491591677 176.72842039065225 2 74.465297854847009 176.90600470412895 2 51.109810446177633 175.7492186351993 2 33.846341508480911 191.34496190868251 2 122.03439960461984 196.99580336947147 2 15.296144501054277 7.5499561736437757 2 9.3647274603395392 7.4607397976371583 2 49.248993661617398 12.437462372092176 2 103.29197973873775 7.6505369903381242 2 155.1465824120653 8.5677630310353461 2 25.364169238411009 12.662790233575739 2 192.9783476334978 6.9802259530755162 2 168.17579766914199 25.516436542961099 2 175.07512878496448 24.108389195530748 2 75.670607456246415 23.423866563131188 2 137.51820284344149 15.593795341379959 2 82.690765103957631 25.059662203825066 2 94.998379122565183 33.366719997573988 2 13.489355323835401 32.827632898324097 2 50.688142387416619 31.365446430561828 2 106.90126836257109 49.415230387306963 2 68.146954350695722 49.628610298295641 2 40.818510139561859 51.666168320146582 2 122.84762089222686 63.605046891834974 2 62.417718533993501 63.098957531014619 2 131.4202388142281 67.839356690033256 2 43.760027636508525 71.259964315129864 2 28.338568742811947 69.315096341541079 2 28.027831108232849 76.094167329751244 2 7.7253529710470215 79.137284554859917 2 117.62554138371668 83.760032137177021 2 44.089704236853493 86.21115215862693 2 58.137744456340563 96.164582474647858 2 46.069856729667897 103.28438942038999 2 82.663606671439453 111.83250982806683 2 109.51104948302262 113.3748695378642 2 130.1319210690088 130.67805851362354 2 118.28085062626778 127.27540593118931 2 134.21943010610917 120.38022085235954 2 13.875715543768527 120.95360256620215 2 102.61059763749546 130.93061395106065 2 96.587808802955038 141.1730653729181 2 162.85862683725043 134.18117521420621 2 114.14832827723617 138.95585344095005 2 182.79120659608921 137.90152258290468 2 54.372882095532901 153.46960615140776 2 128.10179590383134 143.68783567497107 2 61.003735392593832 154.38157531777637 2 185.65255240014679 152.16899533128074 2 70.414150817325094 158.72274647344221 2 100.13838275940238 145.42586775098644 2 80.151056871463638 158.48139757431997 2 126.05195309234783 167.53236766687834 2 110.77390599706429 165.06542910844627 2 13.100837284746406 174.17928664139558 2 30.796990505480494 168.28488164229603 2 73.616773731237686 171.27456598559519 2 59.832147479469405 169.2642749516491 2 43.245764001411473 194.82059530444218 2 127.75277729873518 187.06164667772825 2 17.461327929780481 3.0041966305285395 2 3.0041966305285395 13.10642899369447 2 50.544160983561817 6.0079335904189586 2 112.14549403190892 4.2105979771201616 2 155.72754087516819 3.0041966305285395 2 196.99580336947147 12.396617635925722 2 163.78027121881991 7.6854140129251833 2 185.3669518141329 20.55770482168419 2 90.879707506485886 22.609199909244648 2 85.242086356682279 37.169142556571302 2 106.00338319849563 36.26492045352142 2 58.218591876607682 48.976746369813561 2 3.0041966305285395 52.139119100683203 2 31.399430941206223 58.261526799884358 2 135.9073722165495 48.975968958182087 2 73.000210560037829 53.118931775588464 2 143.69389963554215 62.437848165270822 2 56.089781708046395 60.153568559531031 2 45.268143303249872 80.797738989402362 2 16.751204988730027 65.404150577831587 2 186.02312442070317 78.743488736174925 2 3.0041966305285395 82.919768268766987 2 112.96051636402989 68.333216962382224 2 164.14091192115799 79.26795783403783 2 52.92404178621139 95.003568443084291 2 35.28812540846841 104.17560994977512 2 77.289808918026097 113.48592049536008 2 102.76221310742207 119.83402365019766 2 127.21460425973669 114.57262290794716 2 107.76589429204611 118.15875621570717 2 133.5652530051 125.73780435431475 2 7.7355247759879431 120.60132590546829 2 43.481264639661354 119.12348453492362 2 108.30072463417437 137.9245552460068 2 93.363002425416965 130.26043784025148 2 116.23902042389699 144.20936196509339 2 82.052428118607949 138.15622551006089 2 72.273998582759305 145.42860469611836 2 64.401417165800069 158.79952456359854 2 66.686643227028171 144.35687860755181 2 112.75681343386644 159.52895572411165 2 82.652559944550703 169.13512925317667 2 135.55081343087602 163.65755260490292 2 120.42669233011642 167.9836997866897 2 15.759202422147377 168.62459995465682 2 190.72568791078336 160.61435867600738 2 9.97406448940262 169.09747349514709 2 35.717828740233479 181.56234093534036 2 68.531006645045721 180.16009880818217 2 47.409196118791591 183.21016216347661 2 41.468198564633099 184.09459872155153 2 137.69836992071279 195.01641621068427 2 43.629636792867736 3.0041966305285395 2 95.502768791392185 3.0041966305285395 2 171.06621219965862 7.0784112081772514 2 187.62038027082261 9.1444307282180191 2 175.92030690801275 18.202204601005679 2 181.01679998746383 16.25502379326625 2 140.22552364468731 20.886801124063595 2 89.218490105313847 32.701139328152124 2 96.292891129805611 23.866854016351823 2 49.277347863406398 42.915044778248898 2 101.35612714213507 39.294150569235285 2 63.278201394974936 45.880126046907016 2 10.281442663462613 60.349686325707694 2 45.247968097087345 60.575540481623527 2 125.04697493716326 58.012104675314831 2 55.956358711269665 65.959286480555548 2 41.200988358682558 76.632024775793454 2 41.605699698840901 65.107323876826385 2 23.267810539420893 80.074134598938414 2 12.023591428469789 75.257092872648741 2 123.48889129137548 79.448559517782044 2 42.261035617913812 93.611181623171163 2 58.653236108914044 106.76879177839423 2 50.860252043626524 100.2443608129161 2 86.41086798386678 122.10465213106283 2 114.90599010440873 111.58067765027354 2 123.15117959261073 118.77624837053044 2 107.68054522762772 123.16631901200125 2 49.643821232612098 133.80956886158901 2 102.7801576728895 125.42365766743038 2 93.148172626725341 136.39530912171961 2 110.27473189545 142.86767621532647 2 181.71594050449039 144.40122067350643 2 78.598159725190683 143.01226399828113 2 58.641569478141975 137.28468622049328 2 59.820680934831131 144.63225049957958 2 72.330134990613331 153.52511296229099 2 184.92977682788319 159.83392401850483 2 78.935737128274042 173.2722003811277 2 131.25429416566561 157.60273415313969 2 116.40218702112713 164.06833613588299 2 25.398142100926822 170.48161081971762 2 192.04243719039195 165.32393586458923 2 12.278107622823935 180.19440909644243 2 42.971032598847927 172.49479559943606 2 63.804565361569352 176.26179547096197 2 54.583931929750712 180.54505404478277 2 185.7002709285583 169.42371985573186 2 37.847372035388929 196.99580336947147 2 25.863861199898704 196.99580336947147 2 139.82499846837939 184.91735959306644 2 7.4080626353837209 3.0041966305285395 2 3.0041966305285395 7.9372641919434344 2 60.233816681104329 9.3246007867344378 2 104.94063559218289 12.597219043105655 2 149.30184427641677 8.775094433374985 2 32.010977668247733 13.248315640063026 2 196.42515776550158 20.151672372561944 2 163.67803487697807 21.535291932356824 2 74.79143496532069 29.137845356727709 2 80.518099137167283 19.827749026475065 2 146.39320927364275 20.75305442592218 2 87.258590251300078 42.847691509693242 2 93.13256242326311 43.723130076853082 2 42.951531567683048 45.682128071789933 2 105.02030061699332 43.259206067372084 2 52.762602743015378 53.023217371580749 2 8.0534003307025817 49.296983513762875 2 31.170109237579101 64.145845027497174 2 147.1418059034342 57.756592661015056 2 133.97974030182934 62.886271461249585 2 46.923979984162813 67.00332815814869 2 47.098489873992797 75.642971287100139 2 17.537802386991974 76.729493225591469 2 3.0041966305285395 68.642234233907672 2 118.22121022326027 77.51652248779537 2 168.24426370009249 75.165122417122234 2 51.032520649396872 82.094833345518481 2 40.999405008572069 99.573471323861455 2 88.424527119845862 110.66650869259225 2 98.154349266058063 116.40387399316856 2 128.66648595111394 120.04218331681214 2 118.06706645145297 121.66796893584122 2 6.2550210982118406 128.09645506084667 2 47.26131787340509 124.19556295365526 2 118.54530976562606 133.46616967480114 2 92.270293960807152 122.50102169353508 2 157.42320060105624 130.77786665489839 2 107.01691905884742 150.9881555493788 2 177.78053201429097 140.09928050991778 2 91.063316595233132 141.99335873855463 2 49.845266218031206 141.83104771618304 2 61.220793968314737 163.54295884195903 2 58.070748125337943 149.76514573458908 2 105.85160074779409 155.99639985840017 2 181.8147409218478 155.58998341993228 2 85.593073119877261 160.26272027317319 2 128.63344798005483 172.94815704444508 2 112.41664719085972 175.43697797619384 2 19.241157675049365 172.68739596930075 2 180.88041732402581 166.17328020456509 2 29.629770299743658 173.77145260038918 2 69.175678189886938 174.43085062392765 2 45.63675154727278 177.67718668928322 2 30.147166638742846 186.1997210097924 2 126.96548558552804 194.02240982742416 2 </DataArray>
</Points>
<Cells>
<DataArray Name="connectivity" format="ascii" type="Int32">0</DataArray>
<DataArray Name="offsets" format="ascii" type="Int32">0</DataArray>
<DataArray Name="types" format="ascii" type="UInt8">1</DataArray>
</Cells>
<PointData>