<?xml version="1.0" ?>
<VTKFile byte_order="LittleEndian" type="UnstructuredGrid" version="0.1">
<UnstructuredGrid>
<Piece NumberOfCells="0" NumberOfPoints="800">
<Points>
<DataArray NumberOfComponents="3" format="ascii" type="Float32">16.930834314734746 6.5259637811153954 3.0 122.92908290118815 8.9446285419216292 3.0 33.742195472863749 9.6207299283216816 3.0 171.23123495760828 13.326003200409026 3.0 155.64183582318134 16.073243840183089 3.0 80.166883284170027 16.01815189264104 3.0 113.46527734450331 11.956032694893546 3.0 188.43431451817219 22.146667596718029 3.0 130.10758678380927 26.53671048379044 3.0 90.105582381209615 30.64485794648354 3.0 104.31062695094128 24.155982306675821 3.0 145.80999077462346 25.974314606806768 3.0 70.3229057102985 29.832755132418633 3.0 138.23269498953658 28.237347160851268 3.0 25.347476377613916 35.053738058437624 3.0 167.47724183176453 29.898124138913175 3.0 113.70170997915422 36.21981851183326 3.0 147.46529473777198 45.732393334966545 3.0 72.153054000410435 39.440441834858028 3.0 108.8951567635637 36.61991974900598 3.0 24.029130028466273 46.295804395228927 3.0 90.814008801324931 49.407603517816611 3.0 110.9208186734819 59.332568171679135 3.0 61.320414444652634 49.837597470658366 3.0 2.7 56.763554034534913 3.0 165.2520361719092 72.00469529174481 3.0 44.891593759581362 64.249921822147442 3.0 108.34347085719469 73.349710371750163 3.0 162.21005811291957 76.082680508076464 3.0 164.41866594532462 88.781246264823935 3.0 132.75809025656395 81.629001608185064 3.0 129.54425989869159 95.804452876298498 3.0 86.505866415075175 95.7568808724333 3.0 52.067196953094601 102.57166452329737 3.0 31.138415565262086 93.337437960128796 3.0 70.100350429086248 92.141715882291805 3.0 2.7 105.16703481567627 3.0 103.16363002206933 96.903251040540397 3.0 70.679640739774229 113.47730236372594 3.0 193.03413581902257 106.99675240583484 3.0 130.9709644746514 104.8037463110589 3.0 160.158863194117 115.36475905362204 3.0 150.75516648096493 112.8710641132835 3.0 113.50865750525891 117.53449827287993 3.0 141.65898164950408 121.8228909588739 3.0 169.81736091606706 127.86528319380373 3.0 197.3 116.10496207973409 3.0 45.165370520672077 120.42357329848295 3.0 57.218134540698642 136.02724861945711 3.0 37.848682268484168 131.28503937746697 3.0 71.278428546773895 134.94675906423788 3.0 14.338981850069056 138.68531772165852 3.0 123.5703123618167 137.99936534507449 3.0 186.95243434152204 143.62384246094405 3.0 58.510747432491357 140.12928350472384 3.0 82.110782255185057 144.13133163032381 3.0 99.855674450212518 158.20747198554474 3.0 46.170973162050075 145.56653965861392 3.0 86.761203697968639 159.72744498121554 3.0 170.99715348131886 159.69384128421805 3.0 89.531625820958666 171.873620956781 3.0 23.741996670147714 161.71595028538175 3.0 136.19849646581616 162.10701834355493 3.0 197.3 168.45816921881237 3.0 56.067117448832242 169.45995945939106 3.0 51.510807352770605 171.34232134309499 3.0 121.30635316756201 176.90491508284873 3.0 73.28780279770946 197.3 3.0 37.059111619530164 192.6641752702642 3.0 142.17729578774555 197.3 3.0 27.499608603356908 2.7 2 110.80124296962776 2.7 2 27.764209470050812 18.589366491814886 2 161.46039143835486 15.346001688769588 2 144.36217829142353 6.8513689044623556 2 78.97139109872424 20.390594552673651 2 113.87897855025182 20.672989688744849 2 180.37992596570618 23.75636046616043 2 130.34774657056712 21.829937872292916 2 78.590505955386462 34.207368819326611 2 108.88682482828442 29.029751903018386 2 154.12948318058164 40.234312603581458 2 131.72172304116808 38.131527150664368 2 163.2965006230605 37.077399142677379 2 135.50774573458457 45.22813200485642 2 72.193613756593606 43.941656661169361 2 108.73407509338429 45.994714738779287 2 11.323147164483913 44.180761868310711 2 85.540363546763572 53.297046144300715 2 97.54438988407729 53.847121019348265 2 48.645456568978517 46.502892308949036 2 2.7 47.024911978272286 2 174.97846901591384 63.216228900825136 2 41.43959778607902 76.515844577156912 2 157.05477660506554 85.556203853844579 2 172.22170740404522 76.847928659040193 2 129.3778088364281 84.346385907105883 2 121.58786446198837 99.584287586338277 2 90.38906076843638 102.43530069422832 2 57.938519979814401 90.50304212228481 2 32.801998914197192 109.9306210061402 2 73.421826092673655 106.26289799119064 2 12.108286365872654 105.05228413412532 2 58.805354598843934 104.94708165306027 2 188.69617596105556 109.7103378881235 2 124.91183866199125 113.35964063474815 2 155.26238411817283 100.28692144812054 2 157.47048685317094 131.90551320415335 2 119.00581166531266 110.920733995124 2 139.50292943700563 127.91768975122851 2 174.40033140656635 115.50250633960188 2 193.48956537826245 130.50004366066372 2 48.497165321548259 132.68173644887332 2 49.16359619705225 117.95032035558502 2 28.560709328816007 130.10014293603177 2 75.217398039508907 134.012718868691 2 22.660073003425193 142.59304572404227 2 116.07510644120451 153.01771528969613 2 182.2625445272586 142.9966865547695 2 63.782434841371348 142.99915834424209 2 70.862059985657851 148.03773426677006 2 100.39532827756463 153.7314660264345 2 57.08661260855505 152.50400336078081 2 84.147771137948297 148.27277388222973 2 168.04136260775405 156.01622428573557 2 80.374414172858536 159.58200918067152 2 33.992899128091459 166.74129502531304 2 139.89271816299842 163.09821641190189 2 182.79216465252637 159.91236627358253 2 56.753004905759383 165.14379334103396 2 39.83618208843923 172.58608614144356 2 112.68670027951404 176.6146032482265 2 67.767020274715222 187.43989749225247 2 26.814275990559558 183.5469225087644 2 141.98061460032369 188.87933528807108 2 19.463350495361759 2.7 2 124.05173546791512 2.7 2 24.302456183924217 11.464932606072111 2 179.58288506890668 16.628591911499566 2 156.10079045526734 20.847365222518132 2 83.182655142929804 18.681633305443988 2 192.68046134086941 15.247557823315095 2 92.772582163722973 33.413252158095531 2 96.990555167349768 34.256810618704797 2 143.04850883248906 18.081967343594911 2 63.033273019327488 29.303808407476893 2 142.34488616306692 35.356031084813992 2 12.619161879095788 27.639833590175275 2 177.01169776541494 31.885888149447926 2 145.11885132050529 42.663824517702366 2 64.157711548478431 37.571633131124017 2 103.23103077123284 39.892972045202889 2 16.416599287434387 45.298023363107461 2 75.55686231531412 40.829373637122295 2 102.03311122859465 55.824765118033682 2 52.129770129401393 60.227886354200891 2 13.679795654998193 61.748637238984983 2 164.67140869908977 62.860347791726831 2 45.673163498215935 74.227098189306076 2 100.78357353692275 83.555781916762882 2 157.36194070164456 75.975045593469758 2 177.93012203415751 82.574037957836822 2 128.02633985349462 79.38396270717125 2 140.48316139451666 94.580148844175554 2 92.392372865625831 91.534058906957782 2 43.019720379921068 105.38958564414999 2 35.072711825461468 103.38632054485221 2 73.890800891476786 90.409545293654787 2 10.225521644446207 94.507551849577425 2 63.407183399257178 116.23244319021649 2 197.3 93.972827615238216 2 136.39720160307425 110.42533410903167 2 164.1361371642711 118.69720281489309 2 146.02938978643269 112.64789258633951 2 137.6860326850869 123.88326874684351 2 197.3 122.54607965521711 2 32.119588561692659 114.57588651955575 2 51.993819990625568 135.65325873431951 2 27.661598741459756 117.14700463814012 2 71.847026152385396 125.77900574386487 2 115.71744140923647 142.13285565344339 2 193.70065015725919 153.38276920854383 2 61.432510222848968 154.61226525022929 2 70.097531510678166 152.71160997563234 2 96.479314667588412 156.15236511696347 2 95.859685604762035 165.74595408365167 2 163.26625512468442 157.22873869636851 2 78.116430891848552 167.46044352155283 2 30.698195861582239 155.80451086045562 2 189.63788699123771 165.98819298651912 2 48.968842345747959 178.26361244802476 2 120.52608049531379 181.10010989061843 2 71.987042585074789 189.13660788540221 2 33.237707435578663 191.5677239334627 2 155.78655495656957 194.7489045163835 2 41.969221837763619 2.7 2 106.44656925696242 2.7 2 167.78171361094351 22.308039067194326 2 146.94835719879759 10.288684466767158 2 71.071840772491299 22.44775811940405 2 117.04572385136973 18.730164514631717 2 186.18731538085845 29.454478301495573 2 132.97534936464589 14.243461084657689 2 78.570049398025475 29.58952404254358 2 156.8531439373659 30.61979904726579 2 136.73767809378873 38.833005425840852 2 160.69371776895011 28.520711135281079 2 66.70704384214288 45.583035621802857 2 99.806005724642802 41.708743285445216 2 5.202086574636744 33.254749159090615 2 77.74818125890026 50.146295459520751 2 102.03258209222177 51.937981635881187 2 42.777262943955087 52.667007564453336 2 12.016278618248148 53.208669679123204 2 183.98899446004947 72.387007575876652 2 136.94070056587762 90.976722482492235 2 116.07249247861439 86.696440517400561 2 82.060102980107359 96.784892471331304 2 60.320239119709605 94.150373720517848 2 26.564533215056702 104.39947104125068 2 78.574223983974932 106.81064657102789 2 6.7283182965772603 107.73896852261539 2 63.763031550869563 104.81815277369398 2 128.33531649514939 125.53117060406096 2 149.93713342356594 120.93349557137503 2 125.58522882763027 121.81348472144306 2 146.37895568640883 123.22730555064255 2 175.74905368290996 119.4584752189723 2 197.3 129.36728505398258 2 41.383700037559734 134.19988996703395 2 58.099920782108967 122.6657498491913 2 33.25729993903667 139.56126868669671 2 83.584380150382756 140.0028799850291 2 22.020129426110035 137.44619172240317 2 121.614519195751 148.1678078072685 2 173.37210731088888 155.4207283786219 2 70.929863683988941 139.0607497030247 2 68.176783774197403 156.578233885603 2 89.984077135125517 148.45967429349514 2 72.996101221708955 165.22819073390133 2 44.738790288279056 161.17536280834358 2 195.36162685230249 158.15243092271555 2 61.021517159864807 165.0867339544007 2 49.327565569542465 165.48812481590431 2 111.42128981224457 180.81903166955101 2 76.072230031752639 186.52933926657093 2 29.074345997497893 192.39333891222179 2 14.841185943119193 2.7 2 113.6086409488595
[...]
<PointData>
<DataArray Name="Points" NumberOfComponents="3" format="ascii" type="Float32">16.930834314734746 6.5259637811153954 3.0 122.92908290118815 8.9446285419216292 3.0 33.742195472863749 9.6207299283216816 3.0 171.23123495760828 13.326003200409026 3.0 155.64183582318134 16.073243840183089 3.0 80.166883284170027 16.01815189264104 3.0 113.46527734450331 11.956032694893546 3.0 188.43431451817219 22.146667596718029 3.0 130.10758678380927 26.53671048379044 3.0 90.105582381209615 30.64485794648354 3.0 104.31062695094128 24.155982306675821 3.0 145.80999077462346 25.974314606806768 3.0 70.3229057102985 29.832755132418633 3.0 138.23269498953658 28.237347160851268 3.0 25.347476377613916 35.053738058437624 3.0 167.47724183176453 29.898124138913175 3.0 113.70170997915422 36.21981851183326 3.0 147.46529473777198 45.732393334966545 3.0 72.153054000410435 39.440441834858028 3.0 108.8951567635637 36.61991974900598 3.0 24.029130028466273 46.295804395228927 3.0 90.814008801324931 49.407603517816611 3.0 110.9208186734819 59.332568171679135 3.0 61.320414444652634 49.837597470658366 3.0 2.7 56.763554034534913 3.0 165.2520361719092 72.00469529174481 3.0 44.891593759581362 64.249921822147442 3.0 108.34347085719469 73.349710371750163 3.0 162.21005811291957 76.082680508076464 3.0 164.41866594532462 88.781246264823935 3.0 132.75809025656395 81.629001608185064 3.0 129.54425989869159 95.804452876298498 3.0 86.505866415075175 95.7568808724333 3.0 52.067196953094601 102.57166452329737 3.0 31.138415565262086 93.337437960128796 3.0 70.100350429086248 92.141715882291805 3.0 2.7 105.16703481567627 3.0 103.16363002206933 96.903251040540397 3.0 70.679640739774229 113.47730236372594 3.0 193.03413581902257 106.99675240583484 3.0 130.9709644746514 104.8037463110589 3.0 160.158863194117 115.36475905362204 3.0 150.75516648096493 112.8710641132835 3.0 113.50865750525891 117.53449827287993 3.0 141.65898164950408 121.8228909588739 3.0 169.81736091606706 127.86528319380373 3.0 197.3 116.10496207973409 3.0 45.165370520672077 120.42357329848295 3.0 57.218134540698642 136.02724861945711 3.0 37.848682268484168 131.28503937746697 3.0 71.278428546773895 134.94675906423788 3.0 14.338981850069056 138.68531772165852 3.0 123.5703123618167 137.99936534507449 3.0 186.95243434152204 143.62384246094405 3.0 58.510747432491357 140.12928350472384 3.0 82.110782255185057 144.13133163032381 3.0 99.855674450212518 158.20747198554474 3.0 46.170973162050075 145.56653965861392 3.0 86.761203697968639 159.72744498121554 3.0 170.99715348131886 159.69384128421805 3.0 89.531625820958666 171.873620956781 3.0 23.741996670147714 161.71595028538175 3.0 136.19849646581616 162.10701834355493 3.0 197.3 168.45816921881237 3.0 56.067117448832242 169.45995945939106 3.0 51.510807352770605 171.34232134309499 3.0 121.30635316756201 176.90491508284873 3.0 73.28780279770946 197.3 3.0 37.059111619530164 192.6641752702642 3.0 142.17729578774555 197.3 3.0 27.499608603356908 2.7 2 110.80124296962776 2.7 2 27.764209470050812 18.589366491814886 2 161.46039143835486 15.346001688769588 2 144.36217829142353 6.8513689044623556 2 78.97139109872424 20.390594552673651 2 113.87897855025182 20.672989688744849 2 180.37992596570618 23.75636046616043 2 130.34774657056712 21.829937872292916 2 78.590505955386462 34.207368819326611 2 108.88682482828442 29.029751903018386 2 154.12948318058164 40.234312603581458 2 131.72172304116808 38.131527150664368 2 163.2965006230605 37.077399142677379 2 135.50774573458457 45.22813200485642 2 72.193613756593606 43.941656661169361 2 108.73407509338429 45.994714738779287 2 11.323147164483913 44.180761868310711 2 85.540363546763572 53.297046144300715 2 97.54438988407729 53.847121019348265 2 48.645456568978517 46.502892308949036 2 2.7 47.024911978272286 2 174.97846901591384 63.216228900825136 2 41.43959778607902 76.515844577156912 2 157.05477660506554 85.556203853844579 2 172.22170740404522 76.847928659040193 2 129.3778088364281 84.346385907105883 2 121.58786446198837 99.584287586338277 2 90.38906076843638 102.43530069422832 2 57.938519979814401 90.50304212228481 2 32.801998914197192 109.9306210061402 2 73.421826092673655 106.26289799119064 2 12.108286365872654 105.05228413412532 2 58.805354598843934 104.94708165306027 2 188.69617596105556 109.7103378881235 2 124.91183866199125 113.35964063474815 2 155.26238411817283 100.28692144812054 2 157.47048685317094 131.90551320415335 2 119.00581166531266 110.920733995124 2 139.50292943700563 127.91768975122851 2 174.40033140656635 115.50250633960188 2 193.48956537826245 130.50004366066372 2 48.497165321548259 132.68173644887332 2 49.16359619705225 117.95032035558502 2 28.560709328816007 130.10014293603177 2 75.217398039508907 134.012718868691 2 22.660073003425193 142.59304572404227 2 116.07510644120451 153.01771528969613 2 182.2625445272586 142.9966865547695 2 63.782434841371348 142.99915834424209 2 70.862059985657851 148.03773426677006 2 100.39532827756463 153.7314660264345 2 57.08661260855505 152.50400336078081 2 84.147771137948297 148.27277388222973 2 168.04136260775405 156.01622428573557 2 80.374414172858536 159.58200918067152 2 33.992899128091459 166.74129502531304 2 139.89271816299842 163.09821641190189 2 182.79216465252637 159.91236627358253 2 56.753004905759383 165.14379334103396 2 39.83618208843923 172.58608614144356 2 112.68670027951404 176.6146032482265 2 67.767020274715222 187.43989749225247 2 26.814275990559558 183.5469225087644 2 141.98061460032369 188.87933528807108 2 19.463350495361759 2.7 2 124.05173546791512 2.7 2 24.302456183924217 11.464932606072111 2 179.58288506890668 16.628591911499566 2 156.10079045526734 20.847365222518132 2 83.182655142929804 18.681633305443988 2 192.68046134086941 15.247557823315095 2 92.772582163722973 33.413252158095531 2 96.990555167349768 34.256810618704797 2 143.04850883248906 18.081967343594911 2 63.033273019327488 29.303808407476893 2 142.34488616306692 35.356031084813992 2 12.619161879095788 27.639833590175275 2 177.01169776541494 31.885888149447926 2 145.11885132050529 42.663824517702366 2 64.157711548478431 37.571633131124017 2 103.23103077123284 39.892972045202889 2 16.416599287434387 45.298023363107461 2 75.55686231531412 40.829373637122295 2 102.03311122859465 55.824765118033682 2 52.129770129401393 60.227886354200891 2 13.679795654998193 61.748637238984983 2 164.67140869908977 62.860347791726831 2 45.673163498215935 74.227098189306076 2 100.78357353692275 83.555781916762882 2 157.36194070164456 75.975045593469758 2 177.93012203415751 82.574037957836822 2 128.02633985349462 79.38396270717125 2 140.48316139451666 94.580148844175554 2 92.392372865625831 91.534058906957782 2 43.019720379921068 105.38958564414999 2 35.072711825461468 103.38632054485221 2 73.890800891476786 90.409545293654787 2 10.225521644446207 94.507551849577425 2 63.407183399257178 116.23244319021649 2 197.3 93.972827615238216 2 136.39720160307425 110.42533410903167 2 164.1361371642711 118.69720281489309 2 146.02938978643269 112.64789258633951 2 137.6860326850869 123.88326874684351 2 197.3 122.54607965521711 2 32.119588561692659 114.57588651955575 2 51.993819990625568 135.65325873431951 2 27.661598741459756 117.14700463814012 2 71.847026152385396 125.77900574386487 2 115.71744140923647 142.13285565344339 2 193.70065015725919 153.38276920854383 2 61.432510222848968 154.61226525022929 2 70.097531510678166 152.71160997563234 2 96.479314667588412 156.15236511696347 2 95.859685604762035 165.74595408365167 2 163.26625512468442 157.22873869636851 2 78.116430891848552 167.46044352155283 2 30.698195861582239 155.80451086045562 2 189.63788699123771 165.98819298651912 2 48.968842345747959 178.26361244802476 2 120.52608049531379 181.10010989061843 2 71.987042585074789 189.13660788540221 2 33.237707435578663 191.5677239334627 2 155.78655495656957 194.7489045163835 2 41.969221837763619 2.7 2 106.44656925696242 2.7 2 167.78171361094351 22.308039067194326 2 146.94835719879759 10.288684466767158 2 71.071840772491299 22.44775811940405 2 117.04572385136973 18.730164514631717 2 186.18731538085845 29.454478301495573 2 132.97534936464589 14.243461084657689 2 78.570049398025475 29.58952404254358 2 156.8531439373659 30.61979904726579 2 136.73767809378873 38.833005425840852 2 160.69371776895011 28.520711135281079 2 66.70704384214288 45.583035621802857 2 99.806005724642802 41.708743285445216 2 5.202086574636744 33.254749159090615 2 77.74818125890026 50.146295459520751 2 102.03258209222177 51.937981635881187 2 42.777262943955087 52.667007564453336 2 12.016278618248148 53.208669679123204 2 183.98899446004947 72.387007575876652 2 136.94070056587762 90.976722482492235 2 116.07249247861439 86.696440517400561 2 82.060102980107359 96.784892471331304 2 60.320239119709605 94.150373720517848 2 26.564533215056702 104.39947104125068 2 78.574223983974932 106.81064657102789 2 6.7283182965772603 107.73896852261539 2 63.763031550869563 104.81815277369398 2 128.33531649514939 125.53117060406096 2 149.93713342356594 120.93349557137503 2 125.58522882763027 121.81348472144306 2 146.37895568640883 123.22730555064255 2 175.74905368290996 119.4584752189723 2 197.3 129.36728505398258 2 41.383700037559734 134.19988996703395 2 58.099920782108967 122.6657498491913 2 33.25729993903667 139.56126868669671 2 83.584380150382756 140.0028799850291 2 22.020129426110035 137.44619172240317 2 121.614519195751 148.1678078072685 2 173.37210731088888 155.4207283786219 2 70.929863683988941 139.0607497030247 2 68.176783774197403 156.578233885603 2 89.984077135125517 148.45967429349514 2 72.996101221708955 165.22819073390133 2 44.738790288279056 161.17536280834358 2 195.36162685230249 158.15243092271555 2 61.021517159864807 165.0867339544007 2 49.327565569542465 165.48812481590431 2 111.42128981224457 180.81903166955101 2 76.072230031752639 186.52933926657093 2 29.074345997497893 192.39333891222179 2 14.841185943119193 2.7 2 113.60864094885952 7.9253459613492092 2 176.07118635745658 13.297010946777094 2 151.09222083310556 15.514378784878167 2 197.3 17.65109281200791 2 133.35209302376754 26.891098023024554 2 148.82484033647367 23.117041015395333 2 66.366754290757584 32.859710206910208 2 137.46144877833487 24.717922317604138 2 21.403487535870919 26.546065432021528 2 167.65747054675239 34.630025073729946 2 108.70719784301107 32.665160718476088 2 149.67403304946274 49.109261758182761 2 68.820870483728768 41.66203281693609 2 114.99728327844508 40.991838355694739 2 83.443844245931572 48.929311871633601 2 110.83819966558234 54.91709663282662 2 54.874395348410324 56.432863357769044 2 10.287504212379986 57.873768364369305 2 178.43834142060385 73.072968437702968 2 43.668349196837148 68.605438396220649 2 101.44921287926549 75.58123753151618 2 166.85089948404715 76.545641580699623 2 173.57473928532752 81.628913488350634 2 136.51065804942471 85.345561464629412 2 126.14807668709211 98.926003017556766 2 94.612437175272063 99.782194875874964 2 53.464693522986245 98.362019996264209 2 22.707380439375683 95.47747976822356 2 67.920116096770727 96.519284104389271 2 2.7 96.928374766235834 2 103.55945792035681 101.92531628822937 2 78.440808695012677 114.10309682928549 2 197.3 109.55380928971145 2 135.43500083184566 106.24102608508802 2 154.7517760164711 122.59126971011079 2 148.20316817500037 116.58204319132878 2 111.22098850030821 122.26923561494783 2 138.05808389671685 114.46002191860003 2 172.62804509850724 123.5699364249389 2 192.8243824268464 111.29252127237669 2 62.816794003300437 128.54669937627304 2 31.523541619831562 125.72843517192746 2 66.121565330019621 131.76291872965439 2 124.49651675330463 141.24019288890537 2 195.29959385719741 145.26538985289133 2 55.391185777222972 144.23998326232439 2 75.070405913298345 147.1900154691177 2 98.671436044242583 162.52445728549384 2 49.306149626994824 148.80086420229824 2 82.656820915783484 167.56574645235889 2 84.163283031955942 172.17433411376433 2 29.468641610483921 165.3456960193225 2 197.3 160.97603503494682 2 61.708806071841501 171.64417825001743 2 121.1732863091636 172.28663683883545 2 67.929781828003044 195.72226214712663 2 38.56360980753179 197.3 2 34.892670177793249 2.7 2 119.39894006406695 2.7 2 28.238139001331511 14.489870497649346 2 162.5783743338315 11.058061438187737 2 177.15968505181658 27.334171506958839 2 138.3071202212997 19.782650245820236 2 74.705239173286955 27.322926751271606 2 112.00825600969553 24.489268876148749 2 152.7037063432914 32.028373106299753 2 162.32400560784927 42.362981322592809 2 138.81479698965481 43.069081691921298 2 73.848297484029388 50.276135777870017 2 107.36592379688814 41.570647333934005 2 11.126966777475227 36.31064342455408 2 78.700711403767372 54.708529404994074 2 57.499504923596177 46.363259659359557 2 7.9144796404856015 47.941083371112974 2 169.14047085298583 55.018377036341086 2 161.84084404877143 84.902394389104117 2 176.82263426106212 77.779664156539326 2 132.38813161272856 88.140104335268234 2 122.60650877491238 90.789267785490708 2 83.70207977524764 105.45667360801589 2 62.839408244696926 90.723350315146789 2 29.579451255440315 107.77922411698648 2 68.211131678562893 105.42268025581805 2 15.493547854442824 101.3490820351421 2 56.808165015222507 109.04945277237883 2 126.89937865888494 107.96383502053794 2 148.94120140975267 108.06647656740829 2 149.35605420986639 130.20513784426822 2 133.1551967455118 124.95386889561502 2 189.42453419018599 131.96992557275385 2 44.963200965528991 125.31883802236005 2 49.223627100630516 122.89345640372386 2 38.489025369426741 138.3140831724609 2 79.208279696472403 137.16524028504091 2 19.193940229626662 146.56973327517463 2 113.91089461762209 148.80501517132637 2 179.15833785501019 156.48277915714226 2 65.40829945410475 153.68697611444375 2 76.298111880245386 143.25777818398797 2 61.146241488354612 161.46185072225472 2 165.30117128842508 151.84476415838367 2 76.752272082869084 158.25438402693578 2 30.446793450191155 170.2825646959655 2 52.923961264625852 158.84366392882649 2 41.631930007526591 165.03219807635728 2 113.75010912308362 172.38683812438222 2 25.67903713009866 188.50098521810773 2 150.79624608971648 187.71663572162731 2 25.145671955207103 7.5018780724649359 2 21.779888785144674 18.476551807277939 2 172.08929876056195 21.168014548459276 2 150.03233642877592 27.661822995691715 2 85.4736750476834 25.250320436528089 2 98.015821272976524 30.107237331672493 2 140.7948265784608 22.543904878817244 2 66.755337184657677 19.640372368111933 2 146.66837662050696 29.658496617365458 2 15.865740742508025 24.270910014063769 2 170.80686689308058 37.95013219556327 2 150.52649502943189 36.893773765691229 2 70.577413635400205 36.004929170237084 2 101.27449910864381 31.518715253171916 2 21.08681963292862 54.772849614890887 2 82.404190433664709 42.466222699390485 2 101.16809413658413 64.578954644904414 2 46.522006722688822 59.88111251591242 2 2.7 61.109139708275855 2 169.46949888067033 64.327926818352466 2 53.12455500247102 70.604242857908986 2 105.97834615953164 84.897501378222756 2 171.42106993924523 90.266945614188259 2 119.87489646276227 81.292793815373756 2 139.18341997575075 99.112269463042281 2 99.655388395412771 88.632404992317092 2 47.971493075431383 104.43526579956222 2 38.361690465374963 106.86845050319641 2 78.363430518195742 93.227677700558729 2 7.1924286926130954 103.47947069855643 2 197.3 102.5372385535603 2 140.11622277081517 107.52719168234178 2 158.31869855191803 110.70629397304631 2 144.31071761470596 103.67106269875457 2 135.18170736286191 117.08023173085495 2 197.3 119.10206887544213 2 36.035411949570985 122.33355131708508 2 55.4619192094342 132.10386225834986 2 22.997210634942537 123.07892426237134 2 74.725694755148581 129.40414322897385 2 119.9643446217013 140.20368487957168 2 187.11583542690087 150.25105136740524 2 61.687351741771636 150.79508022946683 2 81.586985665301597 150.74386994979287 2 92.598593947988078 156.50830028649554 2 92.094782138053489 163.25703123333864 2 75.162093375046567 174.20023771464133 2 28.680607000148846 160.49605264780806 2 192.49880158207247 162.4773854124343 2 78.719157641778594 196.19892580876294 2 150.15907873631397 192.72440389539278 2 107.37654178882519 7.3366535574715437 2 169.53730824322821 17.509965242800938 2 140.97892231380695 9.7883160718067401 2 71.178699178730568 18.845674663993037 2 120.22235795908749 20.039990134178218 2 191.39977708321123 30.146690972620892 2 137.1979756730758 11.781245765985593 2 85.466235857403447 30.086643959419867 2 156.89153343124755 25.540368697728582 2 136.93683816613185 33.370894721024662 2 163.30231520876839 21.655238639959009 2 60.845607103747952 41.073070330247347 2 102.55539478320065 48.140646819265399 2 2.7 41.985873928196582 2 75.426049956547089 46.254064879958747 2 106.27742470426708 48.925147722025997 2 47.986040763042666 51.536500306974332 2 18.140235352645483 58.772668618108412 2 132.68668802599956 92.768333244762232 2 117.6161650250292 91.277046971109726 2 82.695115868587607 91.419369192321795 2 61.466671132403377 101.07969987212547 2 25.326098727953216 109.49867232311817 2 75.775271932212974 102.25757359536954 2 2.7 113.54014475243999 2 65.12807275350039 109.37914000921761 2 127.62623150937401 117.33007351148652 2 159.67800728594671 124.51961636424861 2 120.78177209289628 119.45783944324431 2 170.7653576776423 119.32169778751673 2 197.3 137.26438402655003 2 40.911107570809449 123.2220877873884 2 27.252686579483882 144.58666308689462 2 25.481498205850276 133.98656089960105 2 116.29210416132193 145.61074775663735 2 173.69683489163299 148.71998312825633 2 66.954932912137139 136.25366797197609 2 71.837465972927504 157.09448641624147 2 84.267650592141919 153.5514947561536 2 76.655780828687341 162.95471447851529 2 189.19316767424027 153.96033408527845 2 68.496489177811625 164.95046408832357 2 47.810759951375061 169.79501503548502 2 20.721767773096818 196.97642430171072 2 120.8286986445877 6.0467242718322014 2 32.599743615650183 6.5704123065209021 2 192.40844586189522 25.315241279099205 2 142.00651100687978 26.638126966220813 2 71.250128836558176 26.20010540827948 2 139.97026524933258 31.474730477074047 2 24.002099483559764 30.429843878066752 2 163.64685998242126 31.882740816751717 2 112.22013325671094 33.166708346600366 2 142.1186376442264 45.490825068299984 2 75.101455599463918 36.139860972013572 2 105.76235744179303 37.17020742167368 2 19.96618446572429 48.7818344459454 2 106.56622606985343 57.811308932248387 2 6.2422210195374337 55.468330914079296 2 169.54677655398709 69.099819630307636 2 159.93639590811779 80.317323850058017 2 124.60377261743157 94.92461175879771 2 91.164303079482238 96.376199110666434 2 56.352711405480711 101.88976970741901 2 27.459105108656718 96.044998473268151 2 74.033962325197976 94.796749366337707 2 2.7 101.13535838996548 2 99.230701210624673 99.675246392154833 2 68.110142947771891 117.78377474448649 2 158.14415280450152 119.42631898712047 2 155.42772486696137 114.28088049124463 2 117.35980616348458 117.01806552424586 2 142.53233642203071 116.08654864091224 2 62.254674137365818 134.83112121049038 2 36.133653827839716 126.76993306702252 2 70.548483177703332 130.67866807652456 2 190.29751283300223 145.93009211526748 2 59.757100498223672 143.96219151721942 2 79.365416407197571 146.8162478247107 2 47.369940283360023 140.81516152917948 2 83.7983989040616 157.48042246599732 2 24.649146491403393 166.97494459688576 2 52.685097809030033 167.89051896883757 2 51.940526268849339 174.72880149342004 2 117.39278250670498 175.09046006350204 2 72.361801510546343 193.35133693448003 2 33.629339260012678 196.69567642150679 2 146.80126114781368 197.3 2 28.638917978612117 6.4270726237507079 2 110.70492958133995 5.8429158090248334 2 165.00403026332279 18.218988821884057 2 142.86871687248274 2.7 2 76.095920185299136 17.976331189187832 2 74.942204131049621 31.562907010437385 2 107.62398212632034 25.471019764520662 2 158.71032557729055 38.875720900476402 2 159.61166490647639 33.919970925045504 2 134.27740323384546 41.417520428770047 2 70.412667703775142 47.637619669480316 2 111.6455645265543 43.265199538553425 2 6.6840338559156969 43.81373815616444 2 93.717527173313201 52.528023689578824 2 2