<?xml version="1.0" ?>
<VTKFile byte_order="LittleEndian" type="UnstructuredGrid" version="0.1">
<UnstructuredGrid>
<Piece NumberOfCells="0" NumberOfPoints="228">
<Points>
<DataArray NumberOfComponents="3" format="ascii" type="Float32">0 0 0 35.349546589265508 3.1500000000000004 2.5 74.115353563256846 16.364225595551307 3.0 24.491777739830773 18.430434210984863 3.0 61.308052100085042 18.034114885704099 2.5 104.25452101818266 20.64277361227262 3.0 140.07655292020289 24.828024131635463 2.5 21.666948817408048 36.225039113975569 2.5 180.45986671728733 26.422269125342634 2.5 110.90843017060079 40.162787999442322 2.5 68.031237923108137 32.672944449162401 2.5 27.591262100245263 44.198992540624772 2.5 102.66942518974409 51.72737251353054 3.0 94.875299777312335 59.866596214359717 2.5 71.83800562154542 63.648129949149798 2.5 171.30013000314511 76.499174935039179 2.5 181.02632446410882 79.572215345988994 3.0 60.252773474585965 89.59870452471057 2.5 177.99224766348098 129.87279838043008 2.5 41.816539656647677 113.12865117174908 2.5 76.332813897339079 130.2201191463335 2.5 151.72018211486576 131.11558036194836 2.5 14.698956284868004 127.33524646489367 2.5 2.95 125.03479272079258 2.5 34.229134173299776 142.60385843364139 3.0 45.378348356356518 141.89481477720909 2.5 138.5982472502379 151.98849579958508 2.5 175.26068026574535 142.06703383870939 2.5 189.16856411704714 144.48145683021295 2.5 7.6889553446746985 165.22699774740423 2.5 118.90158078996582 155.87815736847921 2.5 43.554638819118217 168.61653951573319 2.5 50.806738406802573 158.07738729428539 2.5 90.855861997836669 157.73452982499009 2.5 192.54075802066654 176.10599773645097 2.5 179.76945842142828 170.59899468994357 2.5 23.149236666317005 182.08475166323316 2.5 15.627986204791515 195.85696088504287 2.5 25.89453492811111 8.2445084645302664 2 90.734476177618916 7.0177809546663186 2 15.984691708235097 14.219470866882494 2 63.587424569895077 23.390134133426773 2 103.74027679365007 25.834557718030101 2 117.90579138671769 44.328131839695565 2 75.822254062619677 40.186284411843197 2 61.861708427083336 39.13745955360266 2 22.161244490517898 45.907036068439467 2 25.977390565684306 56.324096550854222 2 100.8377721944491 56.756152998091835 2 92.592557136128207 48.064029805080423 2 78.55964110401068 111.23939305888767 2 135.26802057684614 113.66947933425341 2 152.23181938037516 125.60102482706392 2 44.527867107405427 127.61613908568941 2.5 62.062628710961071 128.75709840391249 2 141.84321206263326 132.48708881406466 2 39.517095304323057 144.58214647001139 2 188.15449020173855 134.24907038441981 2.5 48.044941661898235 146.78749330481429 2 170.84234762716184 137.54332762691601 2 192.59522668793366 149.71212073472466 2 19.199597284243875 164.40409692690184 2 164.83786681276158 143.45921759670043 2 28.111015077129636 164.61924448959198 2.5 124.27071196588516 154.9698204588442 2 38.349597040762447 150.31753989494982 2 49.127575714458295 152.69867380381223 2 99.640148863894865 160.7670487699088 2 196.85 163.90816124383787 2 22.83483380487343 188.0583755851469 2 79.528555787691218 15.108797958798274 2 2.75 19.202656215700507 2 101.17104095260443 16.389769400124504 2 110.78773365191353 30.758698102642796 2 13.488468634607374 38.791622140236917 2.5 17.826780425563104 59.272995797229406 2 72.879174621299413 57.03330100465724 2 69.40244639572272 68.913802403998304 2.5 176.94213568328925 75.479669955205935 2 138.90707332823439 71.601541575134874 2.5 133.35844282355527 73.023563829025576 2 189.99488319896275 81.681542791425642 2 58.407627850564417 80.120356949276314 2 66.87395882756546 103.36802443725477 2 8.1286541370771364 118.56494278599064 2 70.894566811450858 132.57176549876135 2 80.983449909024927 127.3227764095919 2 153.46024829152279 136.13356161330506 2 9.9525488131759197 124.56682361641842 2 46.048782239664611 132.98144153831612 2 137.41082606153003 145.72058883847768 2 174.74763749370987 151.99794848131927 2 173.84567160668217 157.63749106374536 2 122.0368540927457 160.64564386705038 2 52.073649195753561 163.66582652610174 2.5 137.43679878084706 158.19265398924435 2 90.524735004314692 163.09253321096986 2 87.742247559023554 172.32577990553233 2 181.70471200347447 174.76611598763506 2.5 107.77098019371826 173.02037831500198 2 92.994832516302679 11.704728403775752 2 21.092657894775904 11.59231199439902 2.5 63.948238383922224 28.920155821140252 2 185.6308244114519 26.62637322735927 2 66.500523601796417 43.41509033004202 2 139.02750591610527 47.809842184618397 2 38.158275768116283 34.253561434551827 2 15.053978164255955 49.873015980717625 2 23.287925657612611 61.026303015434586 2 100.6425923810491 62.781309893048828 2.5 105.4598439463477 67.3500088418742 2 181.49769093773602 69.562635108616121 2 147.3919222384576 65.631983778349408 2 84.844380865758922 104.61007961158312 2 174.03066272920557 85.894842461636912 2 67.281234551819693 97.412231202374173 2 7.6120940532119867 85.432545713100723 2.5 126.96650247788837 108.57902673846533 2 139.04605535964208 118.32672403918139 2.5 43.678768722653338 121.66244994537023 2 56.65588281302626 128.74210884652987 2 79.558018922510627 121.86845158892925 2 188.00480610217366 139.05027648054784 2 136.75359355753295 139.72694324483996 2 175.28115193186196 146.66793864238184 2 193.91870445081045 155.16662513159275 2 157.14540044892325 140.06010557186789 2 95.648209850200146 155.99616215891672 2 196.85 168.45508448257499 2 185.87509214789819 177.22959036560562 2 76.786286833874414 185.54666687629279 2 18.314736133089085 180.15335489292781 2.5 20.459836488677695 16.295997313217576 2 62.099254159382781 12.88376137219108 2 173.32756005269738 29.276282261628801 2 113.27611134403725 35.496558597185299 2 60.959809851884636 33.388657695699756 2 145.50385074756608 26.83171438097558 2 187.64886256981163 70.690373557124758 2 176.08780301290761 70.280847041270803 2 4.8183903488469806 121.74821365690393 2 18.78629497796798 122.27226723951932 2.5 13.581526797380139 166.79661773131809 2 38.414738141299566 167.36692742405756 2.5 90.095809937650316 167.59546939912354 2 143.60985268924995 183.99137686643749 2 17.206097063522719 190.4321537043455 2 197.25 22.87091247521586 2 80.351422957899899 44.118674246618532 2 76.631704196121348 53.151009009347561 2 109.44180774052374 72.474816255759265 2 170.62149137788336 90.586110832486582 2 64.924100202442176 89.820773500992942 2 79.530002153896689 106.09620243231142 2 136.67445304722779 133.92106266532437 2 165.22182901133297 137.61255261899382 2 16.774012474354475 184.77603725637641 2 87.341218825041707 13.179613762901557 2 7.7971342297902924 17.599222691543492 2 29.373320427379685 18.0568212539212 2 111.32085444390248 14.742458372269775 2 106.44370689319484 33.084050496126878 2 36.837395296668731 39.254764509985165 2 10.229516395209785 34.534751412548772 2 192.12764916464982 76.774114888366057 2 62.558685636772026 72.159314323819572 2 66.767919518379045 107.97709392263855 2 183.99022654994076 133.81481927164117 2 40.500811977513798 118.08653005937406 2 173.70314729120068 166.5838209540274 2.5 24.05269515972417 162.1081164332499 2 6.296232682503998 169.96645820466958 2 48.211418936374024 170.12399849993227 2 141.43514739971681 168.23410669664023 2 82.793312207301327 174.25054363023665 2 105.05088476132006 164.80469851160535 2 67.781450386031224 16.658405838949292 2 11.712195701646312 15.206206357243595 2 54.614766065913351 28.731963609414993 2 33.999626670091239 21.072733837202808 2 192.18610514064986 25.042177541654002 2 144.90559684282783 50.032548599111564 2 97.257199751751926 46.556717559210426 2 126.97917328438339 85.108545890367381 2 16.241283817102563 87.072255354043335 2 59.724044436940709 112.52634642107057 2 173.28516325238328 131.44394635014592 2 51.095717324426772 128.33606483423515 2 78.04547300891403 116.36178753310269 2 142.18083812713661 126.85532853644382 2 197.25 159.69379929915624 2 49.95795078189456 134.40326109227661 2 179.8867352604845 134.52171967056037 2 140.04425312405991 162.62089960851395 2 108.65795266487122 167.92870756151746 2 142.45008643354376 173.4197235301159 2 134.51180939298874 45.188630305696677 2 109.09945908462441 78.270895092117712 2 2.75 86.648861302481791 2 149.22573355616072 54.673139082845907 2 12.050622425820317 117.76102014870389 2 113.50895974303329 10.668551323094286 2 66.683098274257802 3.362184997662395 2 38.184690846432893 18.222327372962411 2 56.50657531232163 119.86844063880893 2 160.10443391263686 143.99063238347887 2.5 135.00436672373797 22.298846593589893 2 34.573342404806795 109.71352685791385 2 65.423669161318969 133.08502710739634 2 193.8789946590995 20.549827042235218 2 169.8685807655902 71.364565084890003 2 64.426651181675624 93.99571177231897 2 140.44096292856338 122.76346005203398 2 15.552851307240447 162.55964941114939 2 82.330701135142803 178.95209072800725 2 115.23371612290609 6.7032600605031103 2 130.13345550552279 21.429539647486472 2.5 151.13880094268052 61.456642645601441 2 66.673465405718886 72.404343071911953 2 87.674334516619325 100.35024459188392 2 16.555499392300202 117.72871645601441 2 175.59448445009937 162.31696995129477 2 106.65293096574155 16.083636336979474 2 168.12338553680183 130.2596046120224 2 33.119291866521472 166.61366702675411 2 192.83739566244151 172.47989142689917 2 178.07921671246103 166.42226695877008 2 7.0400976201479466 127.9748280986676 2 </DataArray>
</Points>
<Cells>
<DataArray Name="connectivity" format="ascii" type="Int32">0</DataArray>
<DataArray Name="offsets" format="ascii" type="Int32">0</DataArray>
<DataArray Name="types" format="ascii" type="UInt8">1</DataArray>
</Cells>
<PointData>
<DataArray Name="Points" NumberOfComponents="3" format="ascii" type="Float32">0 0 0 35.349546589265508 3.1500000000000004 2.5 74.115353563256846 16.364225595551307 3.0 24.491777739830773 18.430434210984863 3.0 61.308052100085042 18.034114885704099 2.5 104.25452101818266 20.64277361227262 3.0 140.07655292020289 24.828024131635463 2.5 21.666948817408048 36.225039113975569 2.5 180.45986671728733 26.422269125342634 2.5 110.90843017060079 40.162787999442322 2.5 68.031237923108137 32.672944449162401 2.5 27.591262100245263 44.198992540624772 2.5 102.66942518974409 51.72737251353054 3.0 94.875299777312335 59.866596214359717 2.5 71.83800562154542 63.648129949149798 2.5 171.30013000314511 76.499174935039179 2.5 181.02632446410882 79.572215345988994 3.0 60.252773474585965 89.59870452471057 2.5 177.99224766348098 129.87279838043008 2.5 41.816539656647677 113.12865117174908 2.5 76.332813897339079 130.2201191463335 2.5 151.72018211486576 131.11558036194836 2.5 14.698956284868004 127.33524646489367 2.5 2.95 125.03479272079258 2.5 34.229134173299776 142.60385843364139 3.0 45.378348356356518 141.89481477720909 2.5 138.5982472502379 151.98849579958508 2.5 175.26068026574535 142.06703383870939 2.5 189.16856411704714 144.48145683021295 2.5 7.6889553446746985 165.22699774740423 2.5 118.90158078996582 155.87815736847921 2.5 43.554638819118217 168.61653951573319 2.5 50.806738406802573 158.07738729428539 2.5 90.855861997836669 157.73452982499009 2.5 192.54075802066654 176.10599773645097 2.5 179.76945842142828 170.59899468994357 2.5 23.149236666317005 182.08475166323316 2.5 15.627986204791515 195.85696088504287 2.5 25.89453492811111 8.2445084645302664 2 90.734476177618916 7.0177809546663186 2 15.984691708235097 14.219470866882494 2 63.587424569895077 23.390134133426773 2 103.74027679365007 25.834557718030101 2 117.90579138671769 44.328131839695565 2 75.822254062619677 40.186284411843197 2 61.861708427083336 39.13745955360266 2 22.161244490517898 45.907036068439467 2 25.977390565684306 56.324096550854222 2 100.8377721944491 56.756152998091835 2 92.592557136128207 48.064029805080423 2 78.55964110401068 111.23939305888767 2 135.26802057684614 113.66947933425341 2 152.23181938037516 125.60102482706392 2 44.527867107405427 127.61613908568941 2.5 62.062628710961071 128.75709840391249 2 141.84321206263326 132.48708881406466 2 39.517095304323057 144.58214647001139 2 188.15449020173855 134.24907038441981 2.5 48.044941661898235 146.78749330481429 2 170.84234762716184 137.54332762691601 2 192.59522668793366 149.71212073472466 2 19.199597284243875 164.40409692690184 2 164.83786681276158 143.45921759670043 2 28.111015077129636 164.61924448959198 2.5 124.27071196588516 154.9698204588442 2 38.349597040762447 150.31753989494982 2 49.127575714458295 152.69867380381223 2 99.640148863894865 160.7670487699088 2 196.85 163.90816124383787 2 22.83483380487343 188.0583755851469 2 79.528555787691218 15.108797958798274 2 2.75 19.202656215700507 2 101.17104095260443 16.389769400124504 2 110.78773365191353 30.758698102642796 2 13.488468634607374 38.791622140236917 2.5 17.826780425563104 59.272995797229406 2 72.879174621299413 57.03330100465724 2 69.40244639572272 68.913802403998304 2.5 176.94213568328925 75.479669955205935 2 138.90707332823439 71.601541575134874 2.5 133.35844282355527 73.023563829025576 2 189.99488319896275 81.681542791425642 2 58.407627850564417 80.120356949276314 2 66.87395882756546 103.36802443725477 2 8.1286541370771364 118.56494278599064 2 70.894566811450858 132.57176549876135 2 80.983449909024927 127.3227764095919 2 153.46024829152279 136.13356161330506 2 9.9525488131759197 124.56682361641842 2 46.048782239664611 132.98144153831612 2 137.41082606153003 145.72058883847768 2 174.74763749370987 151.99794848131927 2 173.84567160668217 157.63749106374536 2 122.0368540927457 160.64564386705038 2 52.073649195753561 163.66582652610174 2.5 137.43679878084706 158.19265398924435 2 90.524735004314692 163.09253321096986 2 87.742247559023554 172.32577990553233 2 181.70471200347447 174.76611598763506 2.5 107.77098019371826 173.02037831500198 2 92.994832516302679 11.704728403775752 2 21.092657894775904 11.59231199439902 2.5 63.948238383922224 28.920155821140252 2 185.6308244114519 26.62637322735927 2 66.500523601796417 43.41509033004202 2 139.02750591610527 47.809842184618397 2 38.158275768116283 34.253561434551827 2 15.053978164255955 49.873015980717625 2 23.287925657612611 61.026303015434586 2 100.6425923810491 62.781309893048828 2.5 105.4598439463477 67.3500088418742 2 181.49769093773602 69.562635108616121 2 147.3919222384576 65.631983778349408 2 84.844380865758922 104.61007961158312 2 174.03066272920557 85.894842461636912 2 67.281234551819693 97.412231202374173 2 7.6120940532119867 85.432545713100723 2.5 126.96650247788837 108.57902673846533 2 139.04605535964208 118.32672403918139 2.5 43.678768722653338 121.66244994537023 2 56.65588281302626 128.74210884652987 2 79.558018922510627 121.86845158892925 2 188.00480610217366 139.05027648054784 2 136.75359355753295 139.72694324483996 2 175.28115193186196 146.66793864238184 2 193.91870445081045 155.16662513159275 2 157.14540044892325 140.06010557186789 2 95.648209850200146 155.99616215891672 2 196.85 168.45508448257499 2 185.87509214789819 177.22959036560562 2 76.786286833874414 185.54666687629279 2 18.314736133089085 180.15335489292781 2.5 20.459836488677695 16.295997313217576 2 62.099254159382781 12.88376137219108 2 173.32756005269738 29.276282261628801 2 113.27611134403725 35.496558597185299 2 60.959809851884636 33.388657695699756 2 145.50385074756608 26.83171438097558 2 187.64886256981163 70.690373557124758 2 176.08780301290761 70.280847041270803 2 4.8183903488469806 121.74821365690393 2 18.78629497796798 122.27226723951932 2.5 13.581526797380139 166.79661773131809 2 38.414738141299566 167.36692742405756 2.5 90.095809937650316 167.59546939912354 2 143.60985268924995 183.99137686643749 2 17.206097063522719 190.4321537043455 2 197.25 22.87091247521586 2 80.351422957899899 44.118674246618532 2 76.631704196121348 53.151009009347561 2 109.44180774052374 72.474816255759265 2 170.62149137788336 90.586110832486582 2 64.924100202442176 89.820773500992942 2 79.530002153896689 106.09620243231142 2 136.67445304722779 133.92106266532437 2 165.22182901133297 137.61255261899382 2 16.774012474354475 184.77603725637641 2 87.341218825041707 13.179613762901557 2 7.7971342297902924 17.599222691543492 2 29.373320427379685 18.0568212539212 2 111.32085444390248 14.742458372269775 2 106.44370689319484 33.084050496126878 2 36.837395296668731 39.254764509985165 2 10.229516395209785 34.534751412548772 2 192.12764916464982 76.774114888366057 2 62.558685636772026 72.159314323819572 2 66.767919518379045 107.97709392263855 2 183.99022654994076 133.81481927164117 2 40.500811977513798 118.08653005937406 2 173.70314729120068 166.5838209540274 2.5 24.05269515972417 162.1081164332499 2 6.296232682503998 169.96645820466958 2 48.211418936374024 170.12399849993227 2 141.43514739971681 168.23410669664023 2 82.793312207301327 174.25054363023665 2 105.05088476132006 164.80469851160535 2 67.781450386031224 16.658405838949292 2 11.712195701646312 15.206206357243595 2 54.614766065913351 28.731963609414993 2 33.999626670091239 21.072733837202808 2 192.18610514064986 25.042177541654002 2 144.90559684282783 50.032548599111564 2 97.257199751751926 46.556717559210426 2 126.97917328438339 85.108545890367381 2 16.241283817102563 87.072255354043335 2 59.724044436940709 112.52634642107057 2 173.28516325238328 131.44394635014592 2 51.095717324426772 128.33606483423515 2 78.04547300891403 116.36178753310269 2 142.18083812713661 126.85532853644382 2 197.25 159.69379929915624 2 49.95795078189456 134.40326109227661 2 179.8867352604845 134.52171967056037 2 140.04425312405991 162.62089960851395 2 108.65795266487122 167.92870756151746 2 142.45008643354376 173.4197235301159 2 134.51180939298874 45.188630305696677 2 109.09945908462441 78.270895092117712 2 2.75 86.648861302481791 2 149.22573355616072 54.673139082845907 2 12.050622425820317 117.76102014870389 2 113.50895974303329 10.668551323094286 2 66.683098274257802 3.362184997662395 2 38.184690846432893 18.222327372962411 2 56.50657531232163 119.86844063880893 2 160.10443391263686 143.99063238347887 2.5 135.00436672373797 22.298846593589893 2 34.573342404806795 109.71352685791385 2 65.423669161318969 133.08502710739634 2 193.8789946590995 20.549827042235218 2 169.8685807655902 71.364565084890003 2 64.426651181675624 93.99571177231897 2 140.44096292856338 122.76346005203398 2 15.552851307240447 162.55964941114939 2 82.330701135142803 178.95209072800725 2 115.23371612290609 6.7032600605031103 2 130.13345550552279 21.429539647486472 2.5 151.13880094268052 61.456642645601441 2 66.673465405718886 72.404343071911953 2 87.674334516619325 100.35024459188392 2 16.555499392300202 117.72871645601441 2 175.59448445009937 162.31696995129477 2 106.65293096574155 16.083636336979474 2 168.12338553680183 130.2596046120224 2 33.119291866521472 166.61366702675411 2 192.83739566244151 172.47989142689917 2 178.07921671246103 166.42226695877008 2 7.0400976201479466 127.9748280986676 2 </DataArray>
<DataArray Name="forces" NumberOfComponents="3" format="ascii" type="Float32">0 0 0 0.094297210959941036 -0.90899601962978749 0.0 -0.087549037574832789 0.14892456529522502 0.0 0.10530542339767446 0.32385169633547817 0.0 -0.19795183280380962 0.27029865940189945 0.0 0.32278600502100852 0.033444412196726114 0.0 0.17075140291627386 -0.12443521466156451 0.0 -0.056841966337121144 0.3667608092166586 0.0 -0.25343747590618798 -0.063054280085281023 0.0 -0.022477844548213943 0.075544789673136131 0.0 -0.11936275230818361 0.20386399696376697 0.0 -0.086457151073194433 0.14155179753829431 0.0 0.30065251483320471 0.11213096296280567 0.0 0.28241581256684878 -0.072655205345528939 0.0 0.16188434031794596 -0.091659456915879706 0.0 -0.060360749606405528 -0.086151551155575101 0.0 -0.090801494267485461 -0.023116671110795628 0.0 -0.15352077822920895 0.14141686032878353 0.0 -0.31082715224017288 -0.18581670302638825 0.0 0.40059335526667095 0.19689134938646502 0.0 -0.15615794758271523 -0.027110969024626785 0.0 0.21647955204034358 -0.21350628932864446 0.0 -0.17321083273402538 -0.38746546206897481 0.0 -1.5713783886776289 -0.00016277128845826327 0.0 0.064094860084230487 -0.033438647199216964 0.0 0.14472124271869702 0.22558081135865848 0.0 -0.14697408907084475 0.041964059514796134 0.0 0.007044722117029556 -0.38597455001126107 0.0 -0.16825934013435967 -0.019325974331579801 0.0 -0.013959662148845919 0.33704092494559079 0.0 -0.033219831056684274 0.264590107276791 0.0 0.13671355034710034 0.18788631774063641 0.0 0.033807792001311343 0.14540533910293293 0.0 -0.04172734530946931 0.12477596619532649 0.0 -0.013817470318641334 -0.035974820560586873 0.0 -0.23678741750250176 -0.066991866809482437 0.0 -0.19751986020191603 0.16691243064918493 0.0 -0.20187683077234353 0.015939676084603449 0.0 0.20326351386260438 -0.017524481912082446 0.0 -0.14113568551711508 0.10217998645894263 0.0 0.065420286379421502 0.12180783634371178 0.0 0.22451343373155536 0.1482545338711182 0.0 0.044589783267615979 -0.035050258554820635 0.0 0.13436289207845364 0.1657418157683655 0.0 0.037706869855926126 0.37132873395145238 0.0 0.11122512672542842 -0.1160781822478788 0.0 -0.086058910921713153 -0.10695606936725641 0.0 -0.088672606129276854 -0.30869090763710644 0.0 -0.14824160995439328 0.0039450427835416857 0.0 0.30991374243532827 -0.199261387697652 0.0 -0.1271512284785663 0.050298867357714439 0.0 0.10733793600747521 -0.069564956433603164 0.0 -0.078932509952814478 -0.24516515653649287 0.0 0.037744557643687338 -0.20828131529190363 0.0 -0.047348146550039105 -0.28069084283113843 0.0 0.2357429998064681 0.091745888784371926 0.0 0.21676568683744452 -0.089577995265252119 0.0 -0.019572013461984117 -0.028740790765105162 0.0 0.11814981079618814 0.22195927968879869 0.0 -0.17486346578484255 -0.22425587409183895 0.0 -0.042720701749914158 -0.0022193794980426285 0.0 -0.04806671430906842 0.52690143388300958 0.0 0.12216324908553489 -0.29651566769227822 0.0 0.10247563527551551 0.10242309861191659 0.0 -0.093187310796860212 0.24431321991792301 0.0 0.16134943847906669 0.10108951048185766 0.0 0.040511306159856098 0.11649957746510364 0.0 -0.13278751462663335 0.17554550460424057 0.0 2.0468623089024902 -0.1340820955162236 0.0 -0.056441795666089867 0.18145650219874659 0.0 -0.13890189343464038 -0.018128804644919172 0.0 -1.4473211695196202 0.38711572345238932 0.0 -0.019504740996045156 0.19939437975014779 0.0 0.14330678966353227 0.058711907892111781 0.0 0.087492640100580138 0.18402020308382036 0.0 0.084151129641626299 0.077294024929648403 0.0 -0.019698281290595143 -0.25724272528370562 0.0 -0.180923567552977 -0.15061765611729561 0.0 -0.028072908038167949 -0.18189831741880363 0.0 0.060868503871408464 -0.015915820835594563 0.0 0.0081496575664486981 0.15045805009209451 0.0 0.028519667814032118 -0.060775342121604514 0.0 -0.03739830208899475 -0.24650357872181711 0.0 -0.02376607850516288 0.16380766911768757 0.0 -0.34995364705055926 -0.67847191305119758 0.0 -0.10239228319428845 -0.043748695458144242 0.0 -0.26885904607743932 0.053320735630433491 0.0 0.11419703637706022 -0.17968110982603253 0.0 -0.1798103055457122 -0.77649695105657657 0.0 0.089047715158454416 -0.25193196553563474 0.0 -0.070358039733654676 0.04524704184506223 0.0 -0.098482790249170615 -0.067696924572092199 0.0 -0.04850156576055753 -0.050457633102587607 0.0 -0.0088912232951895431 0.10184998522237634 0.0 -0.094243606557749493 0.18088384418793033 0.0 -0.089248490634477151 0.033616133410928173 0.0 -0.038616013794101373 0.045974929892419261 0.0 0.13940029216983726 0.09724677459287398 0.0 -0.062048925408132449 -0.079698925479305488 0.0 -0.3540850708408288 -0.20758156517766829 0.0 0.031254803196951453 0.025808047375044274 0.0 0.15227002946761753 0.19660679814306356 0.0 -0.14926507447634751 0.13622069033838208 0.0 -0.23654247775039816 0.03014783302149493 0.0 0.1726064148138805 -0.13983093552137693 0.0 -0.16784378392019164 0.03877350426748194 0.0 -0.057997563596956514 -0.17190793150062023 0.0 0.090910273317026224 -0.46719366594589795 0.0 -0.022489182365003135 -0.24672655626031814 0.0 0.25345173317561071 0.099475329281831115 0.0 0.14030699347284631 0.11315449057174516 0.0 -0.18185460201216899 0.22580147432427117 0.0 0.095383158442493468 0.042699993697763297 0.0 0.13057876619080683 0.085822705149080136 0.0 -0.33939158265950153 0.046673742365208493 0.0 0.03323463496746748 0.078119120683572407 0.0 -0.082523129233729592 0.04669000823880487 0.0 0.052518003225983434 -0.21817979946097366 0.0 0.049943915834355868 -0.030636892490214063 0.0 0.44942883104374309 -0.43944111088329418 0.0 -0.064953973392029629 -0.34956374017928504 0.0 -0.047863107249258352 -0.0042472192649187779 0.0 -0.12969381441758387 -0.11114528036550497 0.0 -0.0081881310198850255 0.09056151735172363 0.0 -0.07950037178348493 -0.29597679615639527 0.0 -0.082753029236274034 -0.049135897306517684 0.0 0.37955891974811151 -0.20558348990840802 0.0 -0.10693458220215812 0.10710122476626864 0.0 2.0738633858550912 -0.17740824098203406 0.0 -0.17215273191005742 -0.044733358299306358 0.0 -0.18486490081942086 0.124741586350963 0.0 -0.1647970647618997 0.11821270988073512 0.0 -0.11288610971467886 0.35372197316167631 0.0 -0.069859685211920763 0.22811083202718818 0.0 -0.54813529127808347 0.13866061727924484 0.0 0.046388494005049408 0.077237118424717949 0.0 -0.091817533246973532 -0.080634378325102105 0.0 0.096531862270399504 -0.019876961083135636 0.0 -0.039295522363297232 0.20569351976835698 0.0 -0.40827303707827406 -0.29717788994513561 0.0 0.16971181589416312 0.18644094702737946 0.0 0.17610561507508141 -0.3135895601854346 0.0 0.18081620826233746 0.28384933980111948 0.0 0.15185912723696682 0.10585381501373808 0.0 -0.023461404031335009 0.041725109446073438 0.0 -0.17168105794503877 0.032754772303874857 0.0 -0.11277592366379585 0.12962301800395215 0.0 1.1620386728715839 -0.24064471669924858 0.0 -0.32308588277696643 0.10941829173040957 0.0 0.09760339114451122 -0.21509266189550014 0.0 0.034048319731604777 0.03552507306681478 0.0 -0.3949224554035547 0.028859134109501305 0.0 0.14465123591634588 0.020184965605442251 0.0 0.037681102469114158 0.19395059650241764 0.0 0.22782330177555871 0.1015205778932441 0.0 -0.10872494952890399 -0.25565230577306425 0.0 0.0022526629781220719 0.17553521044748616 0.0 0.010112768020947849 -0.026580618532620365 0.0 -0.19337847484408199 0.17134305674755446 0.0 0.21437822249986993 -0.060299037844006032 0.0 0.21849805054769211 0.19014223142203129 0.0 0.20816626841054836 0.1775933264535626 0.0 0.058826071165902216 -0.058849712112075792 0.0 0.075474253965535587 0.26426323183030942 0.0 0.12098497293736797 0.060321276838477433 0.0 0.039133902642071616 -0.14702522462850479 0.0 -0.1165034361264955 0.14304940050657533 0.0 -0.12788434310157468 0.37116623984166358 0.0 -0.61768787158807348 0.042515516450656543 0.0 -0.1631509156741533 0.16023607430085135 0.0 -0.029766105158739779 0.057694414541612379 0.0 -0.028244790596137381 0.3476198845833689 0.0 0.086839454785362813 -0.038971954038156176 0.0 -0.089431330733568126 0.43760131010270564 0.0 0.070972793959750119 -0.0016266793128739687 0.0 -0.18745411368650389 -0.029574547568908649 0.0 -0.089523080426412091 0.046131056097771232 0.0 0.068401846220627421 0.52765575285225985 0.0 0.08751613341737427 -0.25559517093658396 0.0 0.30495246166490841 0.13727253066237521 0.0 0.19160855454787473 0.10936718176530491 0.0 0.03377093168084197 -0.090870940876830078 0.0 0.40324244259341374 0.045485758687623723 0.0 -0.16804900946060147 0.083945825456843592 0.0 0.26492013551807564 0.090889741181116562 0.0 -0.31957879754113128 0.080859776954965185 0.0 -0.39276285045082099 0.23781173928813348 0.0 -0.041588330280761913 0.060402391692282745 0.0 0.12764196357538052 0.0095797179881203266 0.0 -0.039902567667988831 0.10416804622168985 0.0 1.0556220001498662 -0.085623778287094554 0.0 0.19053830032700719 -0.51459074745206279 0.0 -0.2617341384726114 -0.22663217027578147 0.0 -0.23118130036234574 0.18136246120928709 0.0 0.14991228142902135 -0.16254765090022616 0.0 0.057928365443776858 0.3709732299917114 0.0 -0.1933469703134815 0.17113450611448122 0.0 0.11962698897697867 0.051005612640875109 0.0 -0.77096407047014959 0.078599138222947396 0.0 0.12816649162578952 -0.043170907030711754 0.0 -0.0013820378691822288 -0.15244107279657887 0.0 0.071434065663403268 0.1491637866640414 0.0 0.20390250226189188 -0.6384510918679791 0.0 0.30928506043824289 0.019328876877062529 0.0 0.31915292018100916 -0.23160080591519336 0.0 0.061803888524726069 0.4280572748337696 0.0 0.0064670822343018131 0.16490338237130669 0.0 -0.018159122970211272 0.036885137277242699 0.0 -0.16697094298137594 -0.12583902346621778 0.0 -0.18043135799173327 0.072577186570459751 0.0 -0.025440618802422647 -0.04968402033259442 0.0 -0.29232802597419988 -0.095272655554022742 0.0 0.34815431008334713 -0.15709557762212401 0.0 -0.18204922974268853 -0.29013943482809545 0.0 -0.058887905943084351 0.015271576641744333 0.0 0.18682016052892453 0.18979540974819598 0.0 -0.025414908169973438 -0.030692855382393636 0.0 0.21287359511071902 0.19215092169201886 0.0 0.012105560477349342 0.25098408678460105 0.0 0.12444583801708724 0.050976199131826855 0.0 0.11334105079819246 -0.20431293756661525 0.0 -0.026118172459151212 -0.016645807648596356 0.0 0.064485967463957378 -0.053585648240451811 0.0 -0.19391709412649755 -0.044001834356500888 0.0 0.13206774258139475 0.15510108146188167 0.0 0.11503280948030292 -0.24648754012063068 0.0 -0.11476441708851159 -0.077439987153506834 0.0 0.25987718338871824 -0.13117088340037916 0.0 </DataArray>