<?xml version="1.0" ?>
<VTKFile byte_order="LittleEndian" type="UnstructuredGrid" version="0.1">
<UnstructuredGrid>
<Piece NumberOfCells="0" NumberOfPoints="160">
<Points>
<DataArray NumberOfComponents="3" format="ascii" type="Float32">28.464325323671527 3.5322041362270031 3.0 87.467917887249882 9.6496327737943517 3.0 123.92908913096612 8.2587838152131248 3.0 77.429288575202008 17.844729117482235 3.0 8.1923230893679744 20.338823311345276 3.0 22.664469911429681 20.164450419362865 3.0 60.984506229041877 20.161792693338608 3.0 101.86929326901283 21.379785973736091 3.0 133.47652549158013 29.074430337397583 3.0 22.769061417721872 31.694824410800415 3.0 177.41122957862478 33.98584593513911 3.0 194.09308113103555 37.531474761483011 3.0 112.33233972404705 36.173373882036799 3.0 67.065001470808411 36.262446031081872 3.0 145.40086770555357 36.68375056938698 3.0 29.595144138660988 41.40031469012812 3.0 51.191472654338398 45.488365724988576 3.0 12.676657024493808 44.590106791780677 3.0 154.57837879275502 47.711197196495448 3.0 196.74326676777656 50.461871802255864 3.0 19.366153714712009 57.085490121307735 3.0 102.90407044019686 56.846911287624948 3.0 91.266686653641628 59.94562101075946 3.0 81.508707146730558 66.118347475905807 3.0 189.2408489083621 66.954294406632158 3.0 74.112081874796374 68.284382092339726 3.0 98.220179534137984 71.513801352491853 3.0 175.7375492592414 74.514351714444246 3.0 141.36857356834639 74.445853441563244 3.0 133.95994110650011 77.995674159451809 3.0 74.230460081366786 86.17133226404421 3.0 82.252988348462665 87.484292219086583 3.0 182.79350832826461 86.320045182095612 3.0 61.649027398796072 88.983321736837368 3.0 183.02004877273907 92.43682630804237 3.0 9.1161233591014028 97.137480422118941 3.0 183.70727524633548 100.79397406376141 3.0 71.64595553971084 105.03100433268939 3.0 133.83829374504521 105.00262552449703 3.0 161.54208203949955 110.63209210424722 3.0 3.9053684727578961 114.53139240383939 3.0 187.07913169469967 115.32260700345873 3.0 142.31380577263039 118.13370046312491 3.0 185.46577800632153 126.72933802445523 3.0 35.101956928745899 125.52490345491418 3.0 67.768532308709979 128.71071783602187 3.0 74.34633881734311 130.49969702216282 3.0 31.500599076194312 130.85522344669465 3.0 147.35066803585428 134.9075087472655 3.0 20.510216680099028 134.06436122323595 3.0 6.9365003721329836 137.36279355770597 3.0 31.277925984209055 142.57677754974884 3.0 196.93952836946201 139.62576472348533 3.0 42.086802907865945 138.75043957691881 3.0 7.8468343844080088 147.09817890027881 3.0 142.32420615104931 149.50396838863995 3.0 176.10224204790612 150.14864980577826 3.0 195.6893539606819 146.69609053876351 3.0 20.515561012009229 152.47173429414138 3.0 171.038152803598 154.34230972821993 3.0 29.35453123205345 153.23171384050551 3.0 161.75515403350622 156.50108931009564 3.0 10.456704483427915 158.84177647979527 3.0 119.24394559980753 156.98109021542726 3.0 41.559898146736771 159.56108647732989 3.0 49.14773551073943 160.10659853899341 3.0 147.81566263194338 161.07908856563617 3.0 94.343578537767712 160.14258011499223 3.0 164.27892151732388 166.54188445282554 3.0 93.887734310472808 171.91792671594985 3.0 193.91267795580359 174.83847436830698 3.0 180.86473539063877 172.99651077661588 3.0 101.27580493506534 174.93184525599304 3.0 149.29997256434419 181.27415087857574 3.0 28.590913226451583 183.60219990113234 3.0 184.1512545950832 189.22798420340084 3.0 191.58134032098522 191.97948800266417 3.0 89.942737206455618 195.26185474886185 3.0 14.795705190972356 196.7191374183333 3.0 186.30549954351267 195.03215984164228 3.0 22.444053341697977 3.0604716305380006 2 92.69683228755774 6.6289701367679168 2 120.75815756297212 13.397960944245897 2 73.101764441843486 13.428052679397975 2 10.94888123573198 14.96599018922166 2 16.983723026962075 22.21263581309216 2 63.735000759763267 25.537733166169332 2 107.65574892818722 23.107166105591546 2 135.26311602252599 34.842796037247851 2 28.359695917419689 29.412104751747414 2 182.83361814773335 36.64359889169387 2 193.77540020361101 31.501132532320131 2 118.02397515218939 38.191103974390444 2 70.256101499240089 41.389124213006085 2 140.61978106696154 40.372538870001563 2 27.634095829423533 35.688901807933959 2 56.249592775816133 41.894669904265747 2 17.193155901143264 48.598496302506732 2 159.43029602387713 51.306311625107554 2 190.79359042226878 51.494973905718908 2 24.9423837992057 59.403162793895895 2 97.13618133903536 58.599675651166208 2 92.219410285444965 53.983457534295518 2 85.471373969705098 61.579575741291421 2 195.2447376025988 66.306784468722995 2 79.174205660407878 71.679041109357541 2 104.19296640464013 72.403613361712488 2 176.63327961618734 68.542449530037672 2 146.94606716476252 72.131236352597242 2 134.09665996989466 84.032830487133467 2 76.856858711483341 91.608976865174029 2 88.215445782177952 88.440874637703843 2 177.02606728640708 91.702857031529206 2 67.585502822472151 90.394513737110643 2 187.799260309207 96.128172100823164 2 5.3068539626658326 92.451819824310576 2 189.91826376405214 101.87067719489862 2 72.854290368078566 110.94758066660313 2 134.39018855415259 111.01605721465157 2 156.27903842343562 107.67129483528689 2 4.2283408196062959 108.50133125691512 2 188.06755994644141 121.27986992143087 2 144.65575001115454 123.69978039033741 2 181.89543685336849 121.79690776723204 2 37.536085094168676 131.05129592128586 2 61.732626021791809 128.89452172068204 2 73.164302936681139 124.57781051959446 2 29.938694350961118 136.68844436937817 2 142.74091018806084 131.00672918964099 2 22.181820984559948 139.86709227178389 2 3.0604716305380006 141.99644124785871 2 35.868425949619329 138.52228080133639 2 190.91097675984543 139.97598395509766 2 44.133402612149645 144.43135070145598 2 10.920992917622431 141.90040908017647 2 141.2177078780247 143.5675039404799 2 172.34034882497988 145.42486869825686 2 196.08258056293795 152.7391776613014 2 16.030865665449188 156.51580903782354 2 165.55651555018545 151.80901073634973 2 32.527204802097657 158.37074452625686 2 156.9010107429981 152.90898135877097 2 8.6295106741103105 153.08599585550451 2 125.23726545157972 156.24212761364839 2 37.624013433816856 154.98126116778027 2 45.692452305903068 155.15412786357047 2 151.85774279665316 156.59271625445484 2 99.996856495107934 162.26540768913145 2 159.9140307042627 170.71485423015781 2 95.868328937567455 177.6225908783388 2 196.939528369462 169.85956192952415 2 179.82732426953186 178.96155203971188 2 101.23724748172624 180.97042626709469 2 155.10207537935753 182.94793446568875 2 28.702568493634526 189.25840347288644 2 189.07508802954305 185.74238227825853 2 196.939528369462 189.29176730309135 2 86.725225485955747 190.15171121849789 2 17.017224430454881 191.10418298844348 2 180.60586161085158 196.939528369462 2 </DataArray>
</Points>
<Cells>
<DataArray Name="connectivity" format="ascii" type="Int32">0</DataArray>
<DataArray Name="offsets" format="ascii" type="Int32">0</DataArray>
<DataArray Name="types" format="ascii" type="UInt8">1</DataArray>
</Cells>
<PointData>
<DataArray Name="Points" NumberOfComponents="3" format="ascii" type="Float32">28.464325323671527 3.5322041362270031 3.0 87.467917887249882 9.6496327737943517 3.0 123.92908913096612 8.2587838152131248 3.0 77.429288575202008 17.844729117482235 3.0 8.1923230893679744 20.338823311345276 3.0 22.664469911429681 20.164450419362865 3.0 60.984506229041877 20.161792693338608 3.0 101.86929326901283 21.379785973736091 3.0 133.47652549158013 29.074430337397583 3.0 22.769061417721872 31.694824410800415 3.0 177.41122957862478 33.98584593513911 3.0 194.09308113103555 37.531474761483011 3.0 112.33233972404705 36.173373882036799 3.0 67.065001470808411 36.262446031081872 3.0 145.40086770555357 36.68375056938698 3.0 29.595144138660988 41.40031469012812 3.0 51.191472654338398 45.488365724988576 3.0 12.676657024493808 44.590106791780677 3.0 154.57837879275502 47.711197196495448 3.0 196.74326676777656 50.461871802255864 3.0 19.366153714712009 57.085490121307735 3.0 102.90407044019686 56.846911287624948 3.0 91.266686653641628 59.94562101075946 3.0 81.508707146730558 66.118347475905807 3.0 189.2408489083621 66.954294406632158 3.0 74.112081874796374 68.284382092339726 3.0 98.220179534137984 71.513801352491853 3.0 175.7375492592414 74.514351714444246 3.0 141.36857356834639 74.445853441563244 3.0 133.95994110650011 77.995674159451809 3.0 74.230460081366786 86.17133226404421 3.0 82.252988348462665 87.484292219086583 3.0 182.79350832826461 86.320045182095612 3.0 61.649027398796072 88.983321736837368 3.0 183.02004877273907 92.43682630804237 3.0 9.1161233591014028 97.137480422118941 3.0 183.70727524633548 100.79397406376141 3.0 71.64595553971084 105.03100433268939 3.0 133.83829374504521 105.00262552449703 3.0 161.54208203949955 110.63209210424722 3.0 3.9053684727578961 114.53139240383939 3.0 187.07913169469967 115.32260700345873 3.0 142.31380577263039 118.13370046312491 3.0 185.46577800632153 126.72933802445523 3.0 35.101956928745899 125.52490345491418 3.0 67.768532308709979 128.71071783602187 3.0 74.34633881734311 130.49969702216282 3.0 31.500599076194312 130.85522344669465 3.0 147.35066803585428 134.9075087472655 3.0 20.510216680099028 134.06436122323595 3.0 6.9365003721329836 137.36279355770597 3.0 31.277925984209055 142.57677754974884 3.0 196.93952836946201 139.62576472348533 3.0 42.086802907865945 138.75043957691881 3.0 7.8468343844080088 147.09817890027881 3.0 142.32420615104931 149.50396838863995 3.0 176.10224204790612 150.14864980577826 3.0 195.6893539606819 146.69609053876351 3.0 20.515561012009229 152.47173429414138 3.0 171.038152803598 154.34230972821993 3.0 29.35453123205345 153.23171384050551 3.0 161.75515403350622 156.50108931009564 3.0 10.456704483427915 158.84177647979527 3.0 119.24394559980753 156.98109021542726 3.0 41.559898146736771 159.56108647732989 3.0 49.14773551073943 160.10659853899341 3.0 147.81566263194338 161.07908856563617 3.0 94.343578537767712 160.14258011499223 3.0 164.27892151732388 166.54188445282554 3.0 93.887734310472808 171.91792671594985 3.0 193.91267795580359 174.83847436830698 3.0 180.86473539063877 172.99651077661588 3.0 101.27580493506534 174.93184525599304 3.0 149.29997256434419 181.27415087857574 3.0 28.590913226451583 183.60219990113234 3.0 184.1512545950832 189.22798420340084 3.0 191.58134032098522 191.97948800266417 3.0 89.942737206455618 195.26185474886185 3.0 14.795705190972356 196.7191374183333 3.0 186.30549954351267 195.03215984164228 3.0 22.444053341697977 3.0604716305380006 2 92.69683228755774 6.6289701367679168 2 120.75815756297212 13.397960944245897 2 73.101764441843486 13.428052679397975 2 10.94888123573198 14.96599018922166 2 16.983723026962075 22.21263581309216 2 63.735000759763267 25.537733166169332 2 107.65574892818722 23.107166105591546 2 135.26311602252599 34.842796037247851 2 28.359695917419689 29.412104751747414 2 182.83361814773335 36.64359889169387 2 193.77540020361101 31.501132532320131 2 118.02397515218939 38.191103974390444 2 70.256101499240089 41.389124213006085 2 140.61978106696154 40.372538870001563 2 27.634095829423533 35.688901807933959 2 56.249592775816133 41.894669904265747 2 17.193155901143264 48.598496302506732 2 159.43029602387713 51.306311625107554 2 190.79359042226878 51.494973905718908 2 24.9423837992057 59.403162793895895 2 97.13618133903536 58.599675651166208 2 92.219410285444965 53.983457534295518 2 85.471373969705098 61.579575741291421 2 195.2447376025988 66.306784468722995 2 79.174205660407878 71.679041109357541 2 104.19296640464013 72.403613361712488 2 176.63327961618734 68.542449530037672 2 146.94606716476252 72.131236352597242 2 134.09665996989466 84.032830487133467 2 76.856858711483341 91.608976865174029 2 88.215445782177952 88.440874637703843 2 177.02606728640708 91.702857031529206 2 67.585502822472151 90.394513737110643 2 187.799260309207 96.128172100823164 2 5.3068539626658326 92.451819824310576 2 189.91826376405214 101.87067719489862 2 72.854290368078566 110.94758066660313 2 134.39018855415259 111.01605721465157 2 156.27903842343562 107.67129483528689 2 4.2283408196062959 108.50133125691512 2 188.06755994644141 121.27986992143087 2 144.65575001115454 123.69978039033741 2 181.89543685336849 121.79690776723204 2 37.536085094168676 131.05129592128586 2 61.732626021791809 128.89452172068204 2 73.164302936681139 124.57781051959446 2 29.938694350961118 136.68844436937817 2 142.74091018806084 131.00672918964099 2 22.181820984559948 139.86709227178389 2 3.0604716305380006 141.99644124785871 2 35.868425949619329 138.52228080133639 2 190.91097675984543 139.97598395509766 2 44.133402612149645 144.43135070145598 2 10.920992917622431 141.90040908017647 2 141.2177078780247 143.5675039404799 2 172.34034882497988 145.42486869825686 2 196.08258056293795 152.7391776613014 2 16.030865665449188 156.51580903782354 2 165.55651555018545 151.80901073634973 2 32.527204802097657 158.37074452625686 2 156.9010107429981 152.90898135877097 2 8.6295106741103105 153.08599585550451 2 125.23726545157972 156.24212761364839 2 37.624013433816856 154.98126116778027 2 45.692452305903068 155.15412786357047 2 151.85774279665316 156.59271625445484 2 99.996856495107934 162.26540768913145 2 159.9140307042627 170.71485423015781 2 95.868328937567455 177.6225908783388 2 196.939528369462 169.85956192952415 2 179.82732426953186 178.96155203971188 2 101.23724748172624 180.97042626709469 2 155.10207537935753 182.94793446568875 2 28.702568493634526 189.25840347288644 2 189.07508802954305 185.74238227825853 2 196.939528369462 189.29176730309135 2 86.725225485955747 190.15171121849789 2 17.017224430454881 191.10418298844348 2 180.60586161085158 196.939528369462 2 </DataArray>
<DataArray Name="forces" NumberOfComponents="3" format="ascii" type="Float32">0.0001430929572906901 1.1298427676089151e-05 0.0 0.0 0.0 0.0 0.0 0.0 0.0 4.5179917510100998e-07 -1.0594175102745103e-07 0.0 0.0 0.0 0.0 0.0 0.0 0.0 -8.5608262463346811e-07 -1.6732390282339796e-06 0.0 0.00010894913093167756 2.2671565617090586e-05 0.0 0.0 0.0 0.0 0.0 0.0 0.0 0.0 0.0 0.0 0.0 0.0 0.0 0.0 0.0 0.0 0.0 0.0 0.0 0.0 0.0 0.0 0.0 0.0 0.0 -0.00012871743434173815 -6.1940484096353763e-05 0.0 0.0 0.0 0.0 0.0 0.0 0.0 0.0 0.0 0.0 0.0 0.0 0.0 0.021903783527451343 -0.0066401511692425952 0.0 0.00074405499360961913 -0.00095482625020766078 0.0 -0.013241796844747135 0.0065406276508181392 0.0 0.0 0.0 0.0 0.0 0.0 0.0 0.0 0.0 0.0 0.0 0.0 0.0 8.4943744427108569e-06 7.3326370899643505e-06 0.0 0.0 0.0 0.0 0.0 0.0 0.0 0.0 0.0 0.0 0.00021476043350952896 -0.0009126859796281839 0.0 0.0 0.0 0.0 -0.00038147097401696633 -0.00027432565978680263 0.0 0.0 0.0 0.0 0.0 0.0 0.0 0.0 0.0 0.0 0.0 0.0 0.0 0.0 0.0 0.0 0.0 0.0 0.0 0.0 0.0 0.0 0.0 0.0 0.0 0.0 0.0 0.0 -3.4147888610687369e-05 -7.7525130381736509e-05 0.0 0.0 0.0 0.0 0.0 0.0 0.0 -0.00015999193068278538 -6.2853371214742514e-05 0.0 0.0 0.0 0.0 0.0 0.0 0.0 -0.00010428056121782189 -0.0001187955322925364 0.0 9.1470820683881357e-06 4.0219228362007326e-05 0.0 0.0 0.0 0.0 -0.0015380476374534694 -0.0011854364975940512 0.0 -0.0004579490350128395 -0.00039810399136008335 0.0 0.0 0.0 0.0 0.0 0.0 0.0 0.0 0.0 0.0 0.0 0.0 0.0 0.0 0.0 0.0 0.0 0.0 0.0 0.0 0.0 0.0 0.00023390044236608665 0.00073691589828048666 0.0 0.0 0.0 0.0 0.0 0.0 0.0 0.0 0.0 0.0 0.0 0.0 0.0 0.0 0.0 0.0 0.0 0.0 0.0 0.0 0.0 0.0 0.0047019606687365989 -0.0061021921391603388 0.0 0.0 0.0 0.0 0.0 0.0 0.0 0.0 0.0 0.0 0.0 0.0 0.0 -0.011397985121296018 0.0081254784950164031 0.0 -0.0055439267581427684 -0.0019384069076330279 0.0 0.0 0.0 0.0 -0.00056956825172393586 0.0014357941597300289 0.0 -0.022337140939684669 0.021126445864265781 0.0 -0.0001430929572906901 -1.1298427676089151e-05 0.0 0.0 0.0 0.0 0.0 0.0 0.0 3.6518271547776774e-06 -1.3011564815231064e-05 0.0 0.0 0.0 0.0 0.0 0.0 0.0 -4.3999411210613053e-06 2.0883573489333275e-06 0.0 0.00044385474613995905 0.00013249889345472342 0.0 0.0 0.0 0.0 0.0 0.0 0.0 0.0 0.0 0.0 0.0 0.0 0.0 0.0 0.0 0.0 0.0 0.0 0.0 0.0 0.0 0.0 0.0 0.0 0.0 1.7943646202096793e-06 7.4124928509391313e-07 0.0 0.0 0.0 0.0 0.0 0.0 0.0 0.0 0.0 0.0 0.0 0.0 0.0 0.014675045339848064 -0.0017712789360118759 0.0 0.00022180856630730098 -0.0013867246676892624 0.0 -0.017385129776830939 -0.012149669448493683 0.0 0.0 0.0 0.0 -0.0069177658056382551 0.016362022820826938 0.0 0.0 0.0 0.0 0.0 0.0 0.0 0.0 0.0 0.0 0.0 0.0 0.0 0.0 0.0 0.0 0.0 0.0 0.0 -0.0013597491252215752 5.8632478515630823e-05 0.0 0.0 0.0 0.0 0.0012945979878150214 4.5267752443356847e-05 0.0 0.0 0.0 0.0 0.000493642540868819 0.0013365011751046857 0.0 0.0 0.0 0.0 0.0 0.0 0.0 0.0 0.0 0.0 0.0 0.0 0.0 0.0 0.0 0.0 0.0 0.0 0.0 0.0 0.0 0.0 -6.9330485141599842e-05 9.673539505278204e-07 0.0 0.0 0.0 0.0 0.0 0.0 0.0 -2.4455021749408825e-05 1.6942033783216975e-05 0.0 0.0 0.0 0.0 0.0 0.0 0.0 0.0 0.0 0.0 0.0 0.0 0.0 0.0 0.0 0.0 -0.0011058461448397322 0.00071483700338525417 0.0 0.00043675016110776164 -0.00044359262257782483 0.0 0.0 0.0 0.0 0.0 0.0 0.0 0.0 0.0 0.0 0.0 0.0 0.0 0.0 0.0 0.0 0.0 0.0 0.0 0.0 0.0 0.0 -0.00010842100724318691 0.00022357624794995794 0.0 0.0 0.0 0.0 0.0 0.0 0.0 0.0 0.0 0.0 0.0 0.0 0.0 0.0 0.0 0.0 0.0 0.0 0.0 0.0 0.0 0.0 0.010537628593881162 -0.017227886112437175 0.0 0.0 0.0 0.0 0.0 0.0 0.0 0.0 0.0 0.0 0.0017973711238651584 0.00022101661196461558 0.0 0.00026555292475301945 0.015364523627285432 0.0 0.063391241283904498 -0.031300778529703199 0.0 0.0 0.0 0.0 -0.0034844440707616016 -0.00062688983920851946 0.0 -0.035510173586077061 0.012112739573070446 0.0 </DataArray>
<DataArray Name="radii" format="ascii" type="Float32">3.0604716305380006 3.0604716305380006 3.0604716305380006 3.0604716305380006 3.0604716305380006 3.0604716305380006 3.0604716305380006 3.0604716305380006 3.0604716305380006 3.0604716305380006 3.0604716305380006 3.0604716305380006 3.0604716305380006 3.0604716305380006 3.0604716305380006 3.0604716305380006 2.8604716305380005 3.0604716305380006 3.0604716305380006 3.0604716305380006 3.0604716305380006 3.0604716305380006 3.0604716305380006 3.0604716305380006 3.0604716305380006 3.0604716305380006 3.0604716305380006 3.0604716305380006 3.0604716305380006 3.0604716305380006 3.0604716305380006 3.0604716305380006 3.0604716305380006 3.0604716305380006 3.0604716305380006 3.0604716305380006 3.0604716305380006 3.0604716305380006 3.0604716305380006 3.0604716305380006 3.0604716305380006 3.0604716305380006 3.0604716305380006 3.0604716305380006 3.0604716305380006 3.0604716305380006 3.0604716305380006 3.0604716305380006 3.0604716305380006 3.0604716305380006 3.0604716305380006 3.0604716305380006 3.0604716305380006 3.0604716305380006 3.0604716305380006 3.0604716305380006 3.0604716305380006 3.0604716305380006 3.0604716305380006 3.0604716305380006 3.0604716305380006 3.0604716305380006 3.0604716305380006 3.0604716305380006 3.0604716305380006 3.0604716305380006 3.0604716305380006 3.0604716305380006 3.0604716305380006 3.0604716305380006 2.8604716305380005 3.0604716305380006 3.0604716305380006 3.0604716305380006 3.0604716305380006 3.0604716305380006 3.0604716305380006 3.0604716305380006 3.0604716305380006 3.0604716305380006 3.0604716305380006 3.0604716305380006 3.0604716305380006 3.0604716305380006 3.0604716305380006 3.0604716305380006 3.0604716305380006 3.0604716305380006 3.0604716305380006 3.0604716305380006 3.0604716305380006 3.0604716305380006 3.0604716305380006 3.0604716305380006 3.0604716305380006 3.0604716305380006 3.0604716305380006 3.0604716305380006 3.0604716305380006 3.0604716305380006 3.0604716305380006 3.0604716305380006 3.0604716305380006 3.0604716305380006 3.0604716305380006 3.0604716305380006 3.0604716305380006 3.0604716305380006 3.0604716305380006 3.0604716305380006 3.0604716305380006 3.0604716305380006 3.0604716305380006 3.0604716305380006 3.0604716305380006 3.0604716305380006 3.0604716305380006 3.0604716305380006 3.0604716305380006 3.0604716305380006 3.0604716305380006 3.0604716305380006 3.0604716305380006 3.0604716305380006 3.0604716305380006 3.0604716305380006 3.0604716305380006 3.0604716305380006 3.0604716305380006 3.0604716305380006 3.0604716305380006 3.0604716305380006 3.0604716305380006 3.0604716305380006 3.0604716305380006 3.0604716305380006 3.0604716305380006 3.0604716305380006 3.0604716305380006 3.0604716305380006 3.0604716305380006 3.0604716305380006 3.0604716305380006 3.0604716305380006 3.0604716305380006 3.0604716305380006 3.0604716305380006 3.0604716305380006 3.0604716305380006 3.0604716305380006 3.0604716305380006 3.0604716305380006 3.0604716305380006 3.0604716305380006 2.6604716305380003 3.0604716305380006 3.0604716305380006 3.0604716305380006 3.0604716305380006 3.0604716305380006 </DataArray>
</PointData>
<CellData/>
</Piece>
</UnstructuredGrid>
</VTKFile>
