<?xml version="1.0" ?>
<VTKFile byte_order="LittleEndian" type="UnstructuredGrid" version="0.1">
<UnstructuredGrid>
<Piece NumberOfCells="0" NumberOfPoints="60">
<Points>
<DataArray NumberOfComponents="3" format="ascii" type="Float32">0 0 0 76.175403066239369 18.101687439909053 3.0 22.957176597329298 16.926051100222264 3.0 63.168031493704987 18.721511461067383 2.5 136.41303267690802 25.972421149547809 2.5 22.126269862539491 34.466437058719166 2.5 27.855780832321209 42.146694669776373 2.5 91.515261727743933 60.430191017092575 2.5 70.809668374152324 64.954082467378925 2.5 180.84999526094239 82.703095674075072 3.0 60.100764164674203 90.255647890094579 2.5 150.1759682841672 132.70197328567832 2.5 16.122023997343071 132.74183384974202 2.5 32.728274678468985 145.03503406930852 3.0 43.0292045175242 142.33059513504801 2.5 141.78920479105233 151.71938242860878 2.5 177.61388042945759 146.37163734587008 2.5 191.34337488957479 145.97070935507077 2.5 9.5350458302274177 161.28233849290896 2.5 52.470135669190377 158.15118514281616 2.5 192.52124913877671 178.31936928488381 2.5 25.566648026332896 183.40333435506514 2.5 24.385206694828049 6.3494966410123128 2 12.323296647260475 12.083750073827167 2 64.571601680470636 23.91320586615889 2 60.198893021804238 40.554686178219335 2 21.313362959892931 45.580022310913492 2 101.5853379659344 59.683007375058615 2 40.006582932725948 131.46343069174597 2.5 140.68603603377849 132.04546976378256 2 188.07134952087199 135.84875009518643 2.5 45.995189257225789 146.66533594604283 2 172.6144466127555 141.23804424206872 2 191.90248878835806 151.99800681405509 2 18.288129014111842 161.17852148165377 2 163.75258631012392 146.87030773685632 2 125.85442006069304 154.50532044920286 2 37.577592410007384 151.34508559578313 2 25.290566014078678 189.89828842374109 2 110.27453436665135 32.859036589902324 2 16.277221673218662 60.316593201607759 2 177.7217394548604 77.555743074282759 2 66.244412234148953 103.29313470337551 2 10.984327957166155 132.25945069956907 2 138.59049950102499 147.28739595826289 2 176.80692798799581 153.98846108846993 2 174.27078555746988 158.69951970644806 2 180.98952737676314 178.11703889143283 2.5 96.783591726512114 62.885470802634352 2.5 101.71427692230353 68.036235057859813 2 181.67745794259025 69.483364171473426 2 67.772398470565534 96.384606710628049 2 139.11702137420613 121.17974629643031 2.5 134.71403032362443 141.17451857723046 2 155.71919209582785 143.98081962934086 2 186.81457589480655 178.90447151071331 2 187.05243950625132 69.221711663424344 2 165.16082373082369 141.96403624521645 2 68.401632274947076 16.90193044876564 2 140.87141869396777 126.35717024568308 2 </DataArray>
</Points>
<Cells>
<DataArray Name="connectivity" format="ascii" type="Int32">0</DataArray>
<DataArray Name="offsets" format="ascii" type="Int32">0</DataArray>
<DataArray Name="types" format="ascii" type="UInt8">1</DataArray>
</Cells>
<PointData>
<DataArray Name="Points" NumberOfComponents="3" format="ascii" type="Float32">0 0 0 76.175403066239369 18.101687439909053 3.0 22.957176597329298 16.926051100222264 3.0 63.168031493704987 18.721511461067383 2.5 136.41303267690802 25.972421149547809 2.5 22.126269862539491 34.466437058719166 2.5 27.855780832321209 42.146694669776373 2.5 91.515261727743933 60.430191017092575 2.5 70.809668374152324 64.954082467378925 2.5 180.84999526094239 82.703095674075072 3.0 60.100764164674203 90.255647890094579 2.5 150.1759682841672 132.70197328567832 2.5 16.122023997343071 132.74183384974202 2.5 32.728274678468985 145.03503406930852 3.0 43.0292045175242 142.33059513504801 2.5 141.78920479105233 151.71938242860878 2.5 177.61388042945759 146.37163734587008 2.5 191.34337488957479 145.97070935507077 2.5 9.5350458302274177 161.28233849290896 2.5 52.470135669190377 158.15118514281616 2.5 192.52124913877671 178.31936928488381 2.5 25.566648026332896 183.40333435506514 2.5 24.385206694828049 6.3494966410123128 2 12.323296647260475 12.083750073827167 2 64.571601680470636 23.91320586615889 2 60.198893021804238 40.554686178219335 2 21.313362959892931 45.580022310913492 2 101.5853379659344 59.683007375058615 2 40.006582932725948 131.46343069174597 2.5 140.68603603377849 132.04546976378256 2 188.07134952087199 135.84875009518643 2.5 45.995189257225789 146.66533594604283 2 172.6144466127555 141.23804424206872 2 191.90248878835806 151.99800681405509 2 18.288129014111842 161.17852148165377 2 163.75258631012392 146.87030773685632 2 125.85442006069304 154.50532044920286 2 37.577592410007384 151.34508559578313 2 25.290566014078678 189.89828842374109 2 110.27453436665135 32.859036589902324 2 16.277221673218662 60.316593201607759 2 177.7217394548604 77.555743074282759 2 66.244412234148953 103.29313470337551 2 10.984327957166155 132.25945069956907 2 138.59049950102499 147.28739595826289 2 176.80692798799581 153.98846108846993 2 174.27078555746988 158.69951970644806 2 180.98952737676314 178.11703889143283 2.5 96.783591726512114 62.885470802634352 2.5 101.71427692230353 68.036235057859813 2 181.67745794259025 69.483364171473426 2 67.772398470565534 96.384606710628049 2 139.11702137420613 121.17974629643031 2.5 134.71403032362443 141.17451857723046 2 155.71919209582785 143.98081962934086 2 186.81457589480655 178.90447151071331 2 187.05243950625132 69.221711663424344 2 165.16082373082369 141.96403624521645 2 68.401632274947076 16.90193044876564 2 140.87141869396777 126.35717024568308 2 </DataArray>
<DataArray Name="forces" NumberOfComponents="3" format="ascii" type="Float32">0 0 0 0.012426066911965267 -0.070701580915161683 0.0 0.18277726385678805 -0.050396300137890426 0.0 0.070282398057092133 0.056247639490092795 0.0 0.082152883270329852 -0.0024386604863969943 0.0 0.0 0.0 0.0 -0.078978277139726674 0.05185971661262781 0.0 0.05890108836451699 0.057118121392913265 0.0 -0.10252861279664088 0.031413483465497688 0.0 0.0 0.0 0.0 -0.024301821252934508 0.076298631270740727 0.0 -0.0031873213981750952 0.0079548765832134424 0.0 0.02330065538990396 -0.040942936738104146 0.0 0.12789676162075819 0.052026920511152985 0.0 0.32574137124024649 -0.053755038444016523 0.0 0.007529828042081672 0.0086730834165077032 0.0 -0.19456982068468626 -0.16975871799838041 0.0 0.017595653737091946 -0.20321873039954713 0.0 -0.0052306463607104808 0.018610778850483248 0.0 -0.14625305796708804 0.1289243927649493 0.0 -0.021878355835054986 0.043107225506557267 0.0 -0.015511707964437987 -0.096748269342861765 0.0 0.11020858062829203 0.20632335029595297 0.0 0.14056334291380199 -0.010630786580407336 0.0 0.020987286511124255 0.09858790078926169 0.0 0.0 0.0 0.0 0.020558098865051135 0.0010888080701649894 0.0 0.025574817253008947 -0.06170170357047508 0.0 -0.038013051915015569 -0.044349206795605556 0.0 0.027587706491638317 0.019545921045547407 0.0 -0.13446741155612321 -0.27381690371061007 0.0 0.12864894820534981 0.064280717948412891 0.0 0.0 0.0 0.0 -0.11800500951213053 -0.11659286634343483 0.0 -0.0081724830351040528 0.13157829254351236 0.0 0.063347745701703984 -0.27204640219778714 0.0 -0.025403678320631371 0.04704688315762226 0.0 -0.097702022662193966 0.060443802662542817 0.0 -0.054981942932874193 -0.20325774801337582 0.0 -0.023719807811921303 0.0084586836842356107 0.0 -0.019059199280768213 0.053244308216651277 0.0 -0.032951928123255009 0.001965046803714926 0.0 9.4995577313600199e-05 -0.010943581912336353 0.0 0.058235461764524016 -0.41097560937095873 0.0 0.026280423237702088 -0.010329120733390304 0.0 0.046661922179534659 -0.064090268539633649 0.0 -0.003279434857087149 0.0039647401038134245 0.0 -0.17143145576778684 0.015812210636139024 0.0 0.081444862572527157 0.14223026149264478 0.0 0.039594735422863701 -0.022935493784944905 0.0 0.039240955446150375 -0.072369309508152749 0.0 -0.073429599054636585 0.1644202697127039 0.0 0.065164661054434525 -0.0012313084083711012 0.0 0.00083308426102662175 0.016095859002812067 0.0 0.0015030516627971531 0.01492680882967232 0.0 -0.094503205841905372 -0.094634313246712898 0.0 0.047827959486822891 -0.064268826240876736 0.0 0.11194687014788754 -0.39035543404761347 0.0 -0.099865221536422188 0.035027861731861495 0.0 0.0056922064445499646 0.010064583043490453 0.0 </DataArray>
<DataArray Name="radii" format="ascii" type="Float32">0 2.75 2.75 2.75 2.75 2.75 2.75 2.85 2.75 3.0500000000000003 2.75 2.75 2.85 3.0500000000000003 3.1500000000000004 2.75 2.75 3.0500000000000003 2.75 2.85 3.1500000000000004 3.0500000000000003 2.95 2.85 2.75 2.75 2.75 2.75 3.1500000000000004 2.75 2.75 3.1500000000000004 2.75 3.0500000000000003 2.75 2.75 2.75 3.1500000000000004 3.0500000000000003 2.75 2.75 3.0500000000000003 2.75 2.75 2.75 3.0500000000000003 2.75 3.1500000000000004 3.1500000000000004 2.75 2.75 2.75 2.75 2.75 2.75 3.1500000000000004 2.75 2.75 2.75 2.75 </DataArray>
</PointData>
<CellData/>
</Piece>
</UnstructuredGrid>
</VTKFile>
