<?xml version="1.0" ?>
<VTKFile byte_order="LittleEndian" type="UnstructuredGrid" version="0.1">
<UnstructuredGrid>
<Piece NumberOfCells="0" NumberOfPoints="778">
<Points>
<DataArray NumberOfComponents="3" format="ascii" type="Float32">6.364725787749129 12.145961540510669 3.0 54.845595883289349 11.661629181501397 3.0 98.149881722865516 11.01779363958741 3.0 159.59790943629804 11.160787447920777 3.0 184.94806375661315 2.5972666180547197 3.0 170.33356151075239 19.628870309876014 3.0 181.72298232177496 21.905064839436939 3.0 87.967628894232917 26.404708930746981 3.0 99.450026260793152 27.790838081782002 3.0 47.959410270529851 36.460574538425291 3.0 63.514123790912841 48.975430143601329 3.0 9.8415173957090314 53.966603846390235 3.0 39.405703100500894 57.509603292447537 3.0 128.32359082642751 60.824933258843465 3.0 53.221252702898411 69.434346810772965 3.0 30.950130358020786 72.562550309998102 3.0 24.503213119996346 73.805613011441707 3.0 184.98501612646245 73.696517307364957 3.0 112.21717203264063 87.65720553101248 3.0 40.547821733916663 87.860898815513423 3.0 62.207601275220952 99.613137965077158 3.0 46.208779625656724 98.271935391319232 3.0 83.640063174336575 115.75192220699995 3.0 102.92273351508969 110.81937978644491 3.0 128.01083370716134 125.51248368816256 3.0 112.75660665377089 124.45333053414178 3.0 105.88138063756703 132.98132174326417 3.0 100.34034601267548 138.96527865964578 3.0 160.64809100425595 140.50016095336863 3.0 120.98645977003574 138.69310793489521 3.0 76.196481952494466 136.74175204008833 3.0 67.925807742545075 139.11617020606479 3.0 52.758527138941346 148.60795991434554 3.0 124.9771587578048 149.92112009287646 3.0 55.537012017655108 159.95134365748939 3.0 185.92052675181355 146.07188138637534 3.0 76.15208259209713 159.93560542862366 3.0 98.490509912935607 150.97281897829188 3.0 83.664354828886729 164.32857508550137 3.0 132.27514582300032 169.97434968814673 3.0 112.20338447488197 170.91383087696605 3.0 186.68424371209687 173.68819955105187 3.0 19.038866226813425 177.2645449462824 3.0 70.99187071165197 165.53243701820219 3.0 52.967325095675399 170.3300927779151 3.0 41.120915301024176 191.96788403061979 3.0 20.611471033017224 197.41556755420214 3.0 130.97220905809027 191.64247873032139 3.0 22.330195957351652 4.266500735733235 2 57.408310894408636 2.5844324457978454 2 108.00518737371112 2.5844324457978454 2 159.03440472814606 5.7658391414049834 2 38.030338474914196 8.6838791658058359 2 191.46814954965984 12.485800463093925 2 165.85265152814813 12.364710857180622 2 185.38408225733588 14.602413803674766 2 70.383930573334908 23.00942903432 2 96.479577772733663 16.494787232235552 2 76.642135621888443 36.601692186564733 2 101.28147151341062 35.463634444679165 2 45.358169693637002 32.843270199157914 2 53.624410496952905 44.024375398209465 2 2.5844324457978454 57.088738327303027 2 36.254563126714004 53.831492640027442 2 134.01989330602285 53.264827636777369 2 66.610902439614037 56.088907243431194 2 137.94838142568196 67.61348143090369 2 51.611800968536038 58.227103066524869 2 36.296865831285331 81.206040828969179 2 22.167983272225236 69.919805759570835 2 2.5844324457978454 76.747735928426593 2 111.53774972582349 73.561199907811755 2 164.71542249002198 85.754566402966248 2 56.40293903916389 88.090724508093686 2 62.898209857607192 94.711539064788226 2 40.808204368506473 105.28578901271956 2 96.651991685113785 122.10050451398192 2 121.80697902248794 109.1962718755529 2 112.45171589738358 117.67146938707171 2 134.5692285292244 132.1666971910044 2 7.2902643664402866 125.72746166422141 2 48.54125508842462 117.40524879073872 2 112.12236625834467 135.68996426069924 2 86.663875048715795 130.38472069961338 2 156.61352444041168 137.55881876395688 2 111.76348189550397 148.56699092475316 2 84.045182316509951 141.67173303535628 2 75.945389756116995 148.97662504600893 2 66.266535337830035 153.83430077004485 2 71.297146171903506 149.85585815575547 2 109.191479351433 160.4409289440743 2 139.49459460717128 171.14494641410019 2 123.68151109815479 172.57963716588097 2 6.908643171047923 173.58844121117022 2 39.501592678979357 177.44802434988299 2 75.661236157287277 182.58133677867681 2 54.155127049592679 185.99147791418241 2 35.963332403175357 184.91132591998723 2 130.62318876482007 197.41556755420214 2 44.365103600139044 11.100848358628097 2 99.61072417692742 2.8205267912107321 2 169.94616710083184 2.5844324457978454 2 34.940321936135042 16.834614477953693 2 182.3780770958449 7.5653477916991205 2 169.9399252572093 15.219803980847169 2 177.65702866855202 8.2032996724514771 2 145.5364111122943 15.204858798022439 2 81.136688300532185 30.224927730752736 2 91.609899577117673 29.22066502348946 2 55.471397682107593 39.736181771290155 2 99.561688037901604 43.812338408208902 2 46.053112470121533 54.319673489091542 2 130.04611904031839 56.52255858307052 2 61.247632096858254 69.403557402819118 2 125.10569240948261 69.30498514930963 2 39.260517769645489 72.196027535895681 2 35.265643490414476 65.948093220705331 2 17.818642295589619 85.239754624215635 2 11.164903210511259 81.944671734295369 2 122.09024634212344 86.791374340850481 2 169.71850667280663 86.831762462061207 2 48.849157670189832 91.294158986018118 2 56.830455971225 100.86962803783281 2 52.745631890975915 108.90768772415188 2 108.95421712628472 104.20772470540119 2 124.56119832591088 125.03066664929197 2 108.05313471065999 129.47206467287501 2 97.158354333232381 126.51800364021399 2 97.299900871335353 131.31122707265729 2 104.22978728574489 139.89526691695247 2 84.63771259911563 149.97770804023068 2 63.473602276872434 139.85244770076352 2 135.35081733335019 155.046459736195 2 55.721288951703862 141.78381489078387 2 187.65304810305469 157.08591686889886 2 77.215931248117897 155.11681711903313 2 179.20856941825051 159.74415770651967 2 76.800331600628567 168.62916533712357 2 128.07445946976046 162.93308464892758 2 23.172861647949262 177.50526218574234 2 189.97854285425598 171.22921166719692 2 5.0811012174345747 178.39417464337708 2 35.021603935232605 171.40685919555293 2 65.318331897636824 172.31010896540684 2 58.764266998008686 176.7985648318155 2 34.462291404493804 197.41556755420214 2 27.450716522295949 193.10726189780095 2 132.94437519152288 186.29583187865109 2 14.371325463555248 4.7215884919995288 2 2.5844324457978454 2.5844324457978454 2 61.111619731668817 4.9184620431141672 2 146.79629166580651 2.5844324457978454 2 30.098758148972731 10.168518372248014 2 190.37432235483962 22.091897737542457 2 165.89997574846393 16.494600017682586 2 87.12468726486307 19.371111739392976 2 150.23245552126812 26.868461866055846 2 91.540217443656715 39.319234350992971 2 95.268610850598719 40.154928128072541 2 45.770026362571407 40.817127686120607 2 110.80173398465668 45.539928829875926 2 57.286002431221107 53.929782125597704 2 2.5844324457978454 44.157663372986995 2 35.531172728669979 58.626434388752841 2 142.90670098825336 56.397899669180802 2 68.514862089163842 59.955875623204918 2 138.21595272167866 57.09598167861963 2 50.100634272397315 62.487130011584739 2 53.071567480848614 76.705532344920371 2 15.393307922463173 68.982986267468405 2 7.2252390474647097 71.7545151763956 2 111.3012062692312 78.312638848060615 2 171.7334155719052 79.428943727658208 2 49.401600919403151 87.221704361914377 2 36.455462087639042 97.082011207619232 2 87.834388180260902 103.30258491666707 2 98.585668694245925 110.73776832324776 2 118.93870580951643 113.52979344250978 2 133.19860095489096 136.345818815217 2 112.93627006842694 129.5713799603981 2 84.949013786338071 126.52114493234647 2 104.48676561428114 144.26237725746481 2 177.36555713097482 134.91809640025738 2 87.882938476160035 138.96160399074677 2 72.077023097718296 138.66482146212039 2 133.03997113629853 145.77641788556687 2 68.099978199280429 161.95304199351344 2 64.093815326927171 146.64662180879643 2 113.10997216777211 153.37268993264954 2 181.11965571207898 150.79660263226037 2 134.97836944670738 173.46821053797606 2 116.08324264411485 172.2656973595482 2 22.902202175029636 166.30576936229568 2 186.21801906670109 165.33109438439206 2 31.856719093906442 176.46661889321928 2 75.861459790714804 178.07751040076786 2 50.964509979939891 177.05100606045536 2 32.965409856848609 190.09193527175512 2 123.17832778382547 196.84651577721093 2 18.588122835307747 6.770306941597541 2 7.1300389726658189 8.6957307957672061 2 48.084756502573917 14.597105091939374 2 101.41081086476625 7.2385072548947456 2 155.37890443498381 11.664984654030354 2 24.332563289428858 12.264953623716101 2 193.24545086018205 5.6559841791904937 2 169.3026137892972 26.62104126305724 2 173.75408958172167 25.327488702217362 2 75.553898780313943 24.932107900030292 2 135.44079068194102 14.755108028693959 2 84.344205273257884 23.271893529252473 2 95.792245107634585 31.468849513171701 2 51.548045329487621 30.618247323619535 2 107.22093807550525 51.776051075189343 2 69.852982215949538 47.803116869941931 2 40.736934963795115 52.688823342460324 2 120.62500000656219 64.878542842421595 2 61.880142982948044 64.543503395377101 2 132.32480165200653 67.003985345118195 2 43.671673366962224 73.08717337348304 2 26.754221360948783 70.042922116988734 2 28.176006335663502 75.41777474365314 2 6.8429715572034562 81.008378419598174 2 116.90402725467467 86.053543879998571 2 44.838006177305296 84.911300598058418 2 58.874194708642015 96.692548198514814 2 45.705139291117277 104.8671591915861 2 81.032658143746531 111.69683532483704 2 107.01730900182025 111.96898907548507 2 129.83193828202619 132.79715677702001 2 121.33292117819057 128.50265105443484 2 133.65165409111833 118.58162151302702 2 101.40318302637108 131.8982158533085 2 96.142349137762352 142.71297244765751 2 165.85945070411927 133.93561856624274 2 116.14859419679455 138.08674173802325 2 53.764611526139049 152.38595292170487 2 126.89873326121165 142.30921773129771 2 59.460770498058544 153.51689680181661 2 187.16179212688476 151.33915967617168 2 72.123353227640152 160.62722702642375 2 97.283975049284678 146.7776984099381 2 79.705974038584046 157.63808213873571 2 124
[...]
<PointData>
<DataArray Name="Points" NumberOfComponents="3" format="ascii" type="Float32">6.364725787749129 12.145961540510669 3.0 54.845595883289349 11.661629181501397 3.0 98.149881722865516 11.01779363958741 3.0 159.59790943629804 11.160787447920777 3.0 184.94806375661315 2.5972666180547197 3.0 170.33356151075239 19.628870309876014 3.0 181.72298232177496 21.905064839436939 3.0 87.967628894232917 26.404708930746981 3.0 99.450026260793152 27.790838081782002 3.0 47.959410270529851 36.460574538425291 3.0 63.514123790912841 48.975430143601329 3.0 9.8415173957090314 53.966603846390235 3.0 39.405703100500894 57.509603292447537 3.0 128.32359082642751 60.824933258843465 3.0 53.221252702898411 69.434346810772965 3.0 30.950130358020786 72.562550309998102 3.0 24.503213119996346 73.805613011441707 3.0 184.98501612646245 73.696517307364957 3.0 112.21717203264063 87.65720553101248 3.0 40.547821733916663 87.860898815513423 3.0 62.207601275220952 99.613137965077158 3.0 46.208779625656724 98.271935391319232 3.0 83.640063174336575 115.75192220699995 3.0 102.92273351508969 110.81937978644491 3.0 128.01083370716134 125.51248368816256 3.0 112.75660665377089 124.45333053414178 3.0 105.88138063756703 132.98132174326417 3.0 100.34034601267548 138.96527865964578 3.0 160.64809100425595 140.50016095336863 3.0 120.98645977003574 138.69310793489521 3.0 76.196481952494466 136.74175204008833 3.0 67.925807742545075 139.11617020606479 3.0 52.758527138941346 148.60795991434554 3.0 124.9771587578048 149.92112009287646 3.0 55.537012017655108 159.95134365748939 3.0 185.92052675181355 146.07188138637534 3.0 76.15208259209713 159.93560542862366 3.0 98.490509912935607 150.97281897829188 3.0 83.664354828886729 164.32857508550137 3.0 132.27514582300032 169.97434968814673 3.0 112.20338447488197 170.91383087696605 3.0 186.68424371209687 173.68819955105187 3.0 19.038866226813425 177.2645449462824 3.0 70.99187071165197 165.53243701820219 3.0 52.967325095675399 170.3300927779151 3.0 41.120915301024176 191.96788403061979 3.0 20.611471033017224 197.41556755420214 3.0 130.97220905809027 191.64247873032139 3.0 22.330195957351652 4.266500735733235 2 57.408310894408636 2.5844324457978454 2 108.00518737371112 2.5844324457978454 2 159.03440472814606 5.7658391414049834 2 38.030338474914196 8.6838791658058359 2 191.46814954965984 12.485800463093925 2 165.85265152814813 12.364710857180622 2 185.38408225733588 14.602413803674766 2 70.383930573334908 23.00942903432 2 96.479577772733663 16.494787232235552 2 76.642135621888443 36.601692186564733 2 101.28147151341062 35.463634444679165 2 45.358169693637002 32.843270199157914 2 53.624410496952905 44.024375398209465 2 2.5844324457978454 57.088738327303027 2 36.254563126714004 53.831492640027442 2 134.01989330602285 53.264827636777369 2 66.610902439614037 56.088907243431194 2 137.94838142568196 67.61348143090369 2 51.611800968536038 58.227103066524869 2 36.296865831285331 81.206040828969179 2 22.167983272225236 69.919805759570835 2 2.5844324457978454 76.747735928426593 2 111.53774972582349 73.561199907811755 2 164.71542249002198 85.754566402966248 2 56.40293903916389 88.090724508093686 2 62.898209857607192 94.711539064788226 2 40.808204368506473 105.28578901271956 2 96.651991685113785 122.10050451398192 2 121.80697902248794 109.1962718755529 2 112.45171589738358 117.67146938707171 2 134.5692285292244 132.1666971910044 2 7.2902643664402866 125.72746166422141 2 48.54125508842462 117.40524879073872 2 112.12236625834467 135.68996426069924 2 86.663875048715795 130.38472069961338 2 156.61352444041168 137.55881876395688 2 111.76348189550397 148.56699092475316 2 84.045182316509951 141.67173303535628 2 75.945389756116995 148.97662504600893 2 66.266535337830035 153.83430077004485 2 71.297146171903506 149.85585815575547 2 109.191479351433 160.4409289440743 2 139.49459460717128 171.14494641410019 2 123.68151109815479 172.57963716588097 2 6.908643171047923 173.58844121117022 2 39.501592678979357 177.44802434988299 2 75.661236157287277 182.58133677867681 2 54.155127049592679 185.99147791418241 2 35.963332403175357 184.91132591998723 2 130.62318876482007 197.41556755420214 2 44.365103600139044 11.100848358628097 2 99.61072417692742 2.8205267912107321 2 169.94616710083184 2.5844324457978454 2 34.940321936135042 16.834614477953693 2 182.3780770958449 7.5653477916991205 2 169.9399252572093 15.219803980847169 2 177.65702866855202 8.2032996724514771 2 145.5364111122943 15.204858798022439 2 81.136688300532185 30.224927730752736 2 91.609899577117673 29.22066502348946 2 55.471397682107593 39.736181771290155 2 99.561688037901604 43.812338408208902 2 46.053112470121533 54.319673489091542 2 130.04611904031839 56.52255858307052 2 61.247632096858254 69.403557402819118 2 125.10569240948261 69.30498514930963 2 39.260517769645489 72.196027535895681 2 35.265643490414476 65.948093220705331 2 17.818642295589619 85.239754624215635 2 11.164903210511259 81.944671734295369 2 122.09024634212344 86.791374340850481 2 169.71850667280663 86.831762462061207 2 48.849157670189832 91.294158986018118 2 56.830455971225 100.86962803783281 2 52.745631890975915 108.90768772415188 2 108.95421712628472 104.20772470540119 2 124.56119832591088 125.03066664929197 2 108.05313471065999 129.47206467287501 2 97.158354333232381 126.51800364021399 2 97.299900871335353 131.31122707265729 2 104.22978728574489 139.89526691695247 2 84.63771259911563 149.97770804023068 2 63.473602276872434 139.85244770076352 2 135.35081733335019 155.046459736195 2 55.721288951703862 141.78381489078387 2 187.65304810305469 157.08591686889886 2 77.215931248117897 155.11681711903313 2 179.20856941825051 159.74415770651967 2 76.800331600628567 168.62916533712357 2 128.07445946976046 162.93308464892758 2 23.172861647949262 177.50526218574234 2 189.97854285425598 171.22921166719692 2 5.0811012174345747 178.39417464337708 2 35.021603935232605 171.40685919555293 2 65.318331897636824 172.31010896540684 2 58.764266998008686 176.7985648318155 2 34.462291404493804 197.41556755420214 2 27.450716522295949 193.10726189780095 2 132.94437519152288 186.29583187865109 2 14.371325463555248 4.7215884919995288 2 2.5844324457978454 2.5844324457978454 2 61.111619731668817 4.9184620431141672 2 146.79629166580651 2.5844324457978454 2 30.098758148972731 10.168518372248014 2 190.37432235483962 22.091897737542457 2 165.89997574846393 16.494600017682586 2 87.12468726486307 19.371111739392976 2 150.23245552126812 26.868461866055846 2 91.540217443656715 39.319234350992971 2 95.268610850598719 40.154928128072541 2 45.770026362571407 40.817127686120607 2 110.80173398465668 45.539928829875926 2 57.286002431221107 53.929782125597704 2 2.5844324457978454 44.157663372986995 2 35.531172728669979 58.626434388752841 2 142.90670098825336 56.397899669180802 2 68.514862089163842 59.955875623204918 2 138.21595272167866 57.09598167861963 2 50.100634272397315 62.487130011584739 2 53.071567480848614 76.705532344920371 2 15.393307922463173 68.982986267468405 2 7.2252390474647097 71.7545151763956 2 111.3012062692312 78.312638848060615 2 171.7334155719052 79.428943727658208 2 49.401600919403151 87.221704361914377 2 36.455462087639042 97.082011207619232 2 87.834388180260902 103.30258491666707 2 98.585668694245925 110.73776832324776 2 118.93870580951643 113.52979344250978 2 133.19860095489096 136.345818815217 2 112.93627006842694 129.5713799603981 2 84.949013786338071 126.52114493234647 2 104.48676561428114 144.26237725746481 2 177.36555713097482 134.91809640025738 2 87.882938476160035 138.96160399074677 2 72.077023097718296 138.66482146212039 2 133.03997113629853 145.77641788556687 2 68.099978199280429 161.95304199351344 2 64.093815326927171 146.64662180879643 2 113.10997216777211 153.37268993264954 2 181.11965571207898 150.79660263226037 2 134.97836944670738 173.46821053797606 2 116.08324264411485 172.2656973595482 2 22.902202175029636 166.30576936229568 2 186.21801906670109 165.33109438439206 2 31.856719093906442 176.46661889321928 2 75.861459790714804 178.07751040076786 2 50.964509979939891 177.05100606045536 2 32.965409856848609 190.09193527175512 2 123.17832778382547 196.84651577721093 2 18.588122835307747 6.770306941597541 2 7.1300389726658189 8.6957307957672061 2 48.084756502573917 14.597105091939374 2 101.41081086476625 7.2385072548947456 2 155.37890443498381 11.664984654030354 2 24.332563289428858 12.264953623716101 2 193.24545086018205 5.6559841791904937 2 169.3026137892972 26.62104126305724 2 173.75408958172167 25.327488702217362 2 75.553898780313943 24.932107900030292 2 135.44079068194102 14.755108028693959 2 84.344205273257884 23.271893529252473 2 95.792245107634585 31.468849513171701 2 51.548045329487621 30.618247323619535 2 107.22093807550525 51.776051075189343 2 69.852982215949538 47.803116869941931 2 40.736934963795115 52.688823342460324 2 120.62500000656219 64.878542842421595 2 61.880142982948044 64.543503395377101 2 132.32480165200653 67.003985345118195 2 43.671673366962224 73.08717337348304 2 26.754221360948783 70.042922116988734 2 28.176006335663502 75.41777474365314 2 6.8429715572034562 81.008378419598174 2 116.90402725467467 86.053543879998571 2 44.838006177305296 84.911300598058418 2 58.874194708642015 96.692548198514814 2 45.705139291117277 104.8671591915861 2 81.032658143746531 111.69683532483704 2 107.01730900182025 111.96898907548507 2 129.83193828202619 132.79715677702001 2 121.33292117819057 128.50265105443484 2 133.65165409111833 118.58162151302702 2 101.40318302637108 131.8982158533085 2 96.142349137762352 142.71297244765751 2 165.85945070411927 133.93561856624274 2 116.14859419679455 138.08674173802325 2 53.764611526139049 152.38595292170487 2 126.89873326121165 142.30921773129771 2 59.460770498058544 153.51689680181661 2 187.16179212688476 151.33915967617168 2 72.123353227640152 160.62722702642375 2 97.283975049284678 146.7776984099381 2 79.705974038584046 157.63808213873571 2 124.28267916392295 167.86780757850116 2 110.44638029791916 166.95723989053582 2 13.551315793098148 174.08332233263832 2 72.973089808249895 170.44421263267998 2 56.692714105473023 167.17291671906614 2 43.747211584632147 196.13982246398677 2 128.20827036418771 187.62487090607988 2 16.483026601352471 2.5844324457978454 2 2.5844324457978454 15.420484577997337 2 50.871295425431775 6.2352778281047039 2 111.96789383553846 3.293680474409308 2 153.26437282965369 2.5844324457978454 2 197.32636415769824 10.325144176831195 2 164.44731121863802 9.0457350332362978 2 186.05967494283146 22.341850028325894 2 89.531290770939719 22.126889050164941 2 83.292128381445053 38.916469878963184 2 105.0085168863553 35.68935593441455 2 55.433838167050865 48.377380521622904 2 2.5844324457978454 52.382950793956304 2 31.799575610233472 55.724276193495136 2 58.265599118908241 61.843989521236942 2 44.849320094007567 81.072330829822775 2 14.984259767847558 64.507217476712043 2 186.12756714035845 78.014510137478652 2 2.8171519869917834 84.349335357951844 2 111.90311916758782 68.716191077475798 2 163.6143850821739 80.571481315981003 2 51.892165968703878 94.825568287273583 2 34.419446453719686 102.89547866497226 2 102.33618405211838 118.77069520590909 2 107.35475747759337 116.83081640938092 2 132.82247616526413 126.28899256355399 2 43.925752781323745 118.83795604194817 2 107.64281216857611 136.65962846576068 2 93.975474174592037 129.1396905277409 2 116.63996779541719 146.44545478943718 2 83.739630219026921 137.64938306823936 2 72.690718467254214 145.75459308683568 2 64.818308190843368 158.31167396667766 2 65.607361257148412 143.08540443561986 2 113.3463819299065 158.13727005415819 2 81.387926063652102 168.58449665413229 2 136.84090688974672 163.15678461583002 2 119.84041928383834 169.09667175722066 2 15.284334343767197 169.97864152272908 2 190.39046558240568 159.26459579513525 2 37.656382071667927 181.14857027878054 2 66.993480504890172 182.07548359492375 2 49.419740911899829 181.92065861953873 2 40.895330350229976 183.69762691158809 2 139.95628842333849 192.65650907904862 2 43.920406864163326 2.5844324457978454 2 95.641921713852156 2.7515363060102009 2 173.18825009384298 6.3858832284959153 2 186.94420686017909 6.564566894677248 2 176.9822535889999 19.287783031642057 2 181.55683095723279 17.356418248064642 2 140.12425769802707 20.969186327406966 2 90.554723766329047 32.490619728566756 2 98.354086046214562 23.538363054485547 2 48.708904444997465 43.864318174804794 2 103.12409436585547 40.105354631924378 2 9.4359407647350686 61.682287947454725 2 43.689779745888004 61.132984879010472 2 123.22427018398014 57.324068555554518 2 54.498047884902448 64.755416707415051 2 40.846499606477167 78.772125370791628 2 42.147369313250834 65.003457210635872 2 24.586136135142603 80.102473287964372 2 12.091979948096778 72.670875001914069 2 124.51258943795442 77.15586261339665 2 39.376759760766724 92.577702065702127 2 58.646746500277736 108.89146578009269 2 50.208240260941707 99.604594241284744 2 87.030481756280338 122.79470577893601 2 117.32744384712849 108.99498196872004 2 125.16396835326347 120.56401454887714 2 108.81228043796742 123.01433496572071 2 51.175199703920576 134.63110996425306 2 102.97390476239191 124.90875085559553 2 92.120801739096535 138.08658814421852 2 111.76369632115922 143.99627346358642 2 181.27543767649871 145.17160358448675 2 79.649862487446413 142.90365149653337 2 55.896467158575511 136.10873009122304 2 60.473534186703795 143.41413100613812 2 73.087028411009513 156.25821691230672 2 183.23374749458563 158.4534443833291 2 81.060862810930146 172.89388067575828 2 130.03257005248764 157.46830973155383 2 118.03766524459863 164.40168343537701 2 24.332238753225276 170.00759500289712 2 192.78845216541467 165.51286084467705 2 11.058346100301709 180.46484463363001 2 62.43757805462748 174.88015923717282 2 53.728408752780517 180.92649093640819 2 185.75548507513761 170.06918860224297 2 39.247719482335427 197.41556755420214 2 25.28101337434671 197.41556755420214 2 138.92244038214781 186.688753422574 2 6.8608133758880632 2.5844324457978454 2 2.5844324457978454 6.1533111016327453 2 146.79119862444756 9.0520259532362122 2 31.269504829408508 14.092419332722748 2 197.41556755420214 20.161505421375953 2 162.42037332941851 19.702910139415458 2 76.157112810527735 30.978581006063283 2 148.80760590410782 19.097033464596862 2 84.587705674942811 43.730940579971922 2 44.543051155815121 45.731396677208224 2 106.60909450532954 42.464446646676748 2 53.571115363348056 52.258904784801096 2 9.726908551703902 48.726231935199209 2 30.370006771449159 64.394306904009113 2 135.90760970433152 63.838501580844358 2 46.361643552899494 65.282597325079735 2 48.221563239838673 74.763273317201609 2 17.71714716336988 77.484308966667442 2 2.5844324457978454 68.165814110128238 2 119.76194745139122 77.403812487613976 2 167.59155133793507 72.499495337056473 2 49.303048644671442 83.115466562925832 2 39.17948905121149 101.23635869529419 2 89.95565872815375 108.90151561260885 2 96.156426136554799 114.36273276160568 2 129.41482980512959 118.17187113453646 2 120.4654846035194 120.99279519122797 2 46.558356462477555 124.08153288201848 2 120.93287286217452 132.3576695379902 2 90.966173943085352 121.533963109317 2 157.81493943152344 129.4966388421424 2 107.89509771786734 152.2712633779837 2 176.09432931559604 138.82673287438789 2 91.96256025796545 142.33626239854644 2 49.153984864940909 141.40288329320515 2 61.297467556158161 165.28409111961724 2 57.413890097620566 150.35635308720671 2 106.00256617814617 156.90044920522348 2 181.88248010432292 154.42074293674071 2 85.286401687878026 159.75965862087281 2 128.23478367676475 172.28111184278075 2 114.04055926856689 176.77045809199106 2 17.786363126253242 173.62435940688721 2 30.992665085849481 172.06390352622466 2 69.295250189782976 173.24006437394635 2 46.850039685429891 177.7163511500853 2 32.006244868621501 185.29590260178389 2 124.79650054692895 191.41886355770532 2 10.537870947107237 11.898251697552556 2 55.013193221889644 6.9615141851894045 2 95.496293778128532 7.8519755936253102 2 161.59482994472515 14.908715514166216 2 189.87579595959801 2.5844324457978454 2 173.34019590759578 21.424912584110167 2 177.81602396620372 23.31632808366188 2 135.64176976446825 20.181353762110241 2 84.269880409610835 27.582824299845694 2 52.794115150020822 35.392699738743318 2 62.352181568984562 54.024359522919568 2 6.8446562679346243 57.43796551180823 2 43.053205580677911 56.749688541219712 2 127.7097920629119 65.530769838803764 2 65.215073197498143 68.100471673956648 2 51.880120155641713 72.804757010304613 2 34.754359656085519 74.122546726222879 2 21.141156006335649 75.29656992227676 2 180.89225581597009 74.657470426494612 2 110.72434656941384 83.077825224182689 2 35.960009839171718 89.011752098552776 2 63.538654969676983 104.13800260537334 2 47.852283732129287 95.116797018784069 2 88.4748915973679 117.65851652317529 2 103.35788885676288 115.0747759163046 2 125.70841952941841 129.95995265045948 2 114.11388488425573 121.23757205077962 2 110.20418502244881 132.6668013874044 2 103.15709446134831 135.73138802404182 2 161.22187406386468 136.13481646203269 2 122.90955846318855 141.89503686224378 2 80.392458478988274 134.59635601313641 2 66.055227923937707 135.69247538509282 2 52.264826978301414 144.16540593162591 2 123.53079295787424 146.12083791822079 2 59.875628118285476 158.23186849913975 2 184.33626765072131 148.84418710843752 2 74.705744119308193 164.32223471150127 2 103.17532197543603 151.58223479575094 2 80.962709577323366 161.09319519393915 2 132.35542783891873 165.20937183717228 2 115.18000614540051 167.50265581288116 2 14.975077638872595 178.53013265046954 2 68.915438806916526 168.97037060900649 2 57.681699219651627 172.05009525686347 2 39.819356155049576 187.69294484481318 2 18.839307613462218 194.50869388976611 2 135.60256864876987 190.47480035221733 2 25.811558746387728 2.5844324457978454 2 53.066672603440352 2.5844324457978454 2 106.04997830456387 6.1553935081287374 2 162.09193889492408 2.5844324457978454 2 39.304772880193063 13.974883664397073 2 193.02308128063464 15.597888826658767 2 169.7652150190288 10.932109830892109 2 186.66069531552597 11.019297125612326 2 67.250869259604485 26.861889939203564 2 92.137042402025912 18.173180773182864 2 80.176567501661125 34.322496094121178 2 100.57706407141924 31.433663539841586 2 40.585945724240105 33.857963167165295 2 58.557113784331392 44.876455787688556 2 2.5844324457978454 61.98822606917377 2 32.424658887778207 50.769955034600734 2 139.08324688798442 52.984859353248417 2 71.010814207218189 52.97093644019624 2 141.31000393322452 64.727596861791426 2 50.373248548812967 55.077704916996147 2 40.431596839748167 83.379433749068411 2 19.601313819659339 66.505406526334781 2 2.5844324457978454 72.645456324961557 2 116.36292029026548 70.940451590639995 2 168.29077876456725 82.410209107113175 2 52.97237806820246 90.307788768922109 2 43.331622022748938 109.27617594328993 2 93.880800213377611 118.37319565220837 2 123.06413451348891 113.5865885860666 2 115.17069562722284 114.62052493718438 2 137.31213935845207 129.45385519151171 2 13.306376880318194 124.25913457252256 2 53.240280097671963 119.0775062267695 2 115.39237262501894 133.51929103987106 2 89.276024826603631 134.72319941957863 2 154.877727034656 133.41056083110504 2 116.10587777831795 150.51879757682761 2 87.821375737164701 143.74087642708764 2 79.933344107517982 147.78426121413972 2 69.99446629405908 153.6958002510288 2 67.099943973556194 149.86251619660217 2 104.80179776197446 161.21473050914156 2 136.38522994031749 167.69143400381606 2 123.20032521024062 177.71094806354125 2 2.5844324457978454 172.24775231981806 2 43.429676496509906 174.66300950608888 2 74.17866270507821 187.12695087189604 2 49.145121313513641 187.02534484006205 2 36.391493231790953 189.28137861015264 2 134.68705939109114 197.35718018460409 2 46.513685881604715 6.8852410746132682 2 103.51982921870652 2.5844324457978454 2 165.52220724429446 4.1734629250998569 2 181.5683504170874 12.155376883850337 2 173.53868426287164 11.282113399264549 2 176.99893517008917 12.672224988453188 2 142.52481732873139 11.363601595841381 2 86.749818687838811 30.9691621527007