<?xml version="1.0" ?>
<VTKFile byte_order="LittleEndian" type="UnstructuredGrid" version="0.1">
<UnstructuredGrid>
<Piece NumberOfCells="0" NumberOfPoints="697">
<Points>
<DataArray NumberOfComponents="3" format="ascii" type="Float32">86.348962645173373 8.9059053329779019 3.0 129.8750310430967 9.3762303579075805 3.0 2.7844324457978455 24.444385863016432 3.0 197.21556755420215 36.609760941836406 3.0 150.59761209312242 33.664644669656191 3.0 51.573014642028276 46.797302269679832 3.0 12.279329180988844 43.697854240774909 3.0 156.51105933891995 38.680529816001453 3.0 197.21556755420215 55.873142537473093 3.0 20.239540758132321 51.213270097115284 3.0 80.056611757795437 62.041770500276925 3.0 181.27139033811119 60.888636323745267 3.0 102.17700895513241 72.28748966409411 3.0 142.53116133454498 78.931953107745798 3.0 135.86728077516719 80.986369960333477 3.0 69.692867707456514 80.200474288377833 3.0 88.366894870993178 83.856795922459824 3.0 184.815362663961 83.141208102769582 3.0 7.2833795912475434 97.407927792458253 3.0 177.15300008263233 105.98201976091384 3.0 74.24297781871023 103.7678198616874 3.0 134.56145744598177 97.795120354966087 3.0 163.27314234803788 109.74110318311956 3.0 2.7844324457978455 113.33895393611756 3.0 183.96829712253762 112.90955495411342 3.0 141.29035506917876 114.41635461737648 3.0 67.9122498624874 124.28896448850392 3.0 24.056557360841747 121.59468718699465 3.0 197.21556755420215 135.5866458830946 3.0 10.482331395541074 148.14673594048674 3.0 18.909644184403277 159.75318686662064 3.0 167.18884780563263 148.31627316463508 3.0 33.058194611320033 157.58211477412618 3.0 161.47761884018499 161.43894654307533 3.0 144.45555702900086 165.03565375338965 3.0 165.34876117723434 166.51478315310681 3.0 94.917122722328187 166.30182405027696 3.0 103.16023481955538 168.84606655043888 3.0 145.39005179994356 179.21615279414172 3.0 183.51013670159583 183.02361534888229 3.0 193.64558175005135 193.60936551372589 3.0 92.944687880742947 197.21556755420215 3.0 187.28514033387168 193.56153797085335 3.0 118.46905128464719 12.059753876726433 2 74.543016978438501 7.0370214888266185 2 12.039167605993155 26.835575545330279 2 135.46035885150039 39.932037379965514 2 24.25097171628293 28.651909449311198 2 179.78957033880712 34.093373376231554 2 193.19953494235253 29.755627724794106 2 140.32496880916244 38.886246104769917 2 32.258219662077998 35.244631574295326 2 165.10237428928642 54.840093073721043 2 185.07453379035962 55.706842570509913 2 81.622753638256199 51.788550744442631 2 197.21556755420215 69.18486471941894 2 77.951136175094163 70.235476514120847 2 105.31186148701752 75.305963457842282 2 173.38807379676564 60.572898299362592 2 152.39793709927278 68.024834645844379 2 140.29349273624427 89.103096003778845 2 75.818286491396165 91.545717412236641 2 97.804722519624761 80.854874102037726 2 170.40590786403399 95.828223630150504 2 67.569463767219005 87.254753184532248 2 190.42421351416007 89.634021884329016 2 2.7844324457978455 91.034677935708359 2 197.21556755420215 106.46799231299865 2 151.66002676620946 104.89525611107238 2 11.798434045600278 108.91672135877934 2 192.99882935788355 120.6067361413634 2 173.77640281690992 115.44580327861678 2 72.64839836051371 115.66070874398309 2 28.176362064515775 129.90461410249327 2 22.375298177126485 136.97684379584825 2 2.7844324457978455 145.35686959369826 2 15.535356245946195 132.16858584499272 2 141.04358734787314 137.35449458502899 2 155.88525770560139 145.86011369715388 2 9.2350606509673856 152.08241918922175 2 151.43909369158604 154.90510172380121 2 156.32912581683158 171.54021452923888 2 91.966557613627685 175.74940155426586 2 173.86228631007216 179.30867146929523 2 105.48574144264056 176.65595463486898 2 150.90748711732468 188.67383007192075 2 190.53120036136565 179.52138426002196 2 197.21556755420215 187.1656956692635 2 87.361897067905375 188.2760282186828 2 8.563252667355588 188.40662477161024 2 168.15299552009719 197.21556755420215 2 31.078278454448213 2.6290979429048793 2 123.09342920537902 2.7844324457978455 2 77.151314506701638 11.182445281511109 2 29.495380367856459 22.932233343857835 2 55.310844240483824 17.284049446825794 2 124.90519043199333 29.031364584670762 2 20.097245936580165 31.203243018253239 2 169.63233175043391 36.770872475336354 2 185.19933929056828 32.817510762375356 2 71.938233915958307 36.657345293591995 2 145.47221044963445 44.300599827041843 2 31.857934316525817 40.863446935952645 2 154.82082083279678 51.780771360013766 2 193.18519200382497 47.010533414408343 2 106.46047574198423 58.312606589976987 2 90.570001645978536 56.163820616180679 2 192.72119190656687 67.419805723631796 2 93.24786900834799 71.552222339497035 2 74.63472642193274 81.77025070089752 2 80.75783259972215 93.401280851323421 2 180.55580361804635 92.681751078439916 2 15.393494894556961 92.189033058619003 2 172.6930715101347 100.7425069948298 2 139.51229067912075 99.963132646383698 2 167.98296276766337 108.07671238119734 2 192.94821223891557 111.87345105977913 2 144.94397075725479 112.35262571767262 2 192.05353891767692 125.07313619306133 2 25.911269419529535 117.42072804527218 2 33.454678981052204 125.18098533149968 2 24.382431150733574 133.27671106387655 2 30.451850915087789 146.36129544880592 2 197.21556755420215 139.27088924709395 2 11.235319459851262 143.24875456044455 2 197.21556755420215 147.63219336099425 2 25.921442548775882 150.36090452705793 2 26.323790031433614 158.28892911272422 2 169.76903288351076 158.63693865407677 2 2.7844324457978455 163.27397889009066 2 45.720360780961109 156.43817516326109 2 161.69437353980356 165.30640224525362 2 150.79702299366855 179.49398484320398 2 29.430210939999085 180.85522642387011 2 174.98973243845029 185.87143798727186 2 190.32280912839377 192.78586397530782 2 84.689621401272547 192.61701901767879 2 7.6841528543718587 193.27969601292878 2 175.1133071005026 192.77676709659897 2 116.00645677537123 16.462933825650691 2 66.45827070190505 11.106565936735246 2 11.504184476675942 21.410122426721124 2 115.66338743556668 21.400584645349262 2 136.18031983305355 28.681137297257642 2 40.052418123678713 22.647142692635729 2 177.2806864508367 38.514274101738224 2 120.31342266619514 30.279168886189144 2 160.43285585413565 42.199288003738658 2 183.38507282019424 46.216473136385829 2 97.513856532003857 50.935439034573008 2 86.120119940966461 67.967676882305369 2 196.00856433663577 59.511741269453907 2 90.884704426133311 75.253910691606976 2 131.46569583149957 82.871965411556786 2 91.894007083749472 97.215648713873321 2 188.52722778672691 99.059869210513412 2 197.21556755420215 94.085740675217153 2 70.056963683270993 111.52951020734922 2 159.85824064206926 102.26169804242285 2 7.3111138994767408 107.13101790013508 2 188.10431570662337 118.11119071722236 2 171.96034293160864 123.85621248712071 2 34.564985867210105 137.3061066506242 2 146.87903145540102 129.18858883871997 2 19.150187616922999 144.96915008974113 2 2.7844324457978455 133.40141517369415 2 38.978019304529511 135.73005883341588 2 13.818541140815661 139.1357497071096 2 16.820183773683354 152.09682022264138 2 162.53095744486481 148.60824292296545 2 36.962318156830108 159.31755575455264 2 2.7844324457978455 157.51317870949444 2 125.8606256202268 159.47020698986285 2 43.789370425807874 160.79568211480722 2 44.968432318310164 151.51186430126347 2 141.87280534723672 156.8750707905576 2 162.70681632186012 177.39088588045885 2 95.418517466500674 184.11673147128278 2 172.13897327847008 175.06279586266768 2 107.58932660077483 185.94103020740374 2 160.33811414779149 181.75251838883207 2 197.21556755420215 183.68507735913985 2 172.85906923467221 197.21556755420215 2 39.792061780110579 2.604196630528539 2 80.116072226869704 7.0448647636707777 2 133.31182001790762 5.3218547037727353 2 7.8988311671608296 30.049904287089024 2 129.82211865446976 26.923349968622524 2 191.85957405968756 38.669037768581973 2 17.11647102869965 43.487036734327731 2 150.23295431414832 48.993831701441152 2 197.21556755420215 47.97820776336183 2 21.451039986858902 55.925107044262383 2 83.076672363178332 71.916823186404898 2 147.67927406052675 77.050135520232942 2 129.89164769983029 77.710527405292623 2 74.476410735374955 77.346225557951286 2 83.745901766253212 85.710130472733184 2 193.183694304949 85.530735447115092 2 17.989191069368353 102.11319681161881 2 186.75133860923634 103.2716687588715 2 74.327232486252257 99.113963403188038 2 129.10585232945482 100.88771881319647 2 158.62343042383833 111.44474822402421 2 180.20436132543674 109.90967112866485 2 143.34221168670351 107.64079852599578 2 182.02537438296727 124.86042356265223 2 29.062597430810342 113.1670953364152 2 67.1674388249522 128.8059336629355 2 71.749693454254285 127.62431284825777 2 147.21248263383302 134.64946734231037 2 7.0196251004389465 131.9300581898251 2 193.55565079937608 128.26637933177281 2 6.34795042092267 149.80109761217071 2 146.03823235286049 147.85617355325101 2 25.42979874368984 154.27397315888493 2 169.78590450451077 153.24331269546974 2 154.11543655237713 158.52384538825441 2 146.45080211315533 169.7291960935346 2 90.348422126897262 152.99015942884677 2 169.25107658343242 166.71961736288054 2 98.199942747346469 169.7279024860706 2 181.35833081106713 180.38711583147395 2 197.21556755420215 197.21556755420215 2 95.635256734030307 192.89908857796914 2 190.49354190976032 197.21556755420215 2 89.330827599177596 2.5844324457978454 2 128.58024944831945 14.392408203333845 2 76.913789456998643 2.7844324457978455 2 15.799321585169569 19.073131827501662 2 112.5457135039677 25.473082896600658 2 130.37695183678122 41.908778264584775 2 32.060313607028803 30.147274349992841 2 187.19966016256745 37.443805746005644 2 121.39496051174115 40.06253627201793 2 142.4545267572488 35.010649187599981 2 160.56952465079505 51.952991547549729 2 180.4470550100595 52.072980189659596 2 25.887067447416086 50.70123989943491 2 86.761305586176306 50.77532604003104 2 197.21556755420215 64.162933899403058 2 73.771595123057153 68.379795375512941 2 169.0479878609226 65.982644527738202 2 156.798546
[...]
<PointData>
<DataArray Name="Points" NumberOfComponents="3" format="ascii" type="Float32">86.348962645173373 8.9059053329779019 3.0 129.8750310430967 9.3762303579075805 3.0 2.7844324457978455 24.444385863016432 3.0 197.21556755420215 36.609760941836406 3.0 150.59761209312242 33.664644669656191 3.0 51.573014642028276 46.797302269679832 3.0 12.279329180988844 43.697854240774909 3.0 156.51105933891995 38.680529816001453 3.0 197.21556755420215 55.873142537473093 3.0 20.239540758132321 51.213270097115284 3.0 80.056611757795437 62.041770500276925 3.0 181.27139033811119 60.888636323745267 3.0 102.17700895513241 72.28748966409411 3.0 142.53116133454498 78.931953107745798 3.0 135.86728077516719 80.986369960333477 3.0 69.692867707456514 80.200474288377833 3.0 88.366894870993178 83.856795922459824 3.0 184.815362663961 83.141208102769582 3.0 7.2833795912475434 97.407927792458253 3.0 177.15300008263233 105.98201976091384 3.0 74.24297781871023 103.7678198616874 3.0 134.56145744598177 97.795120354966087 3.0 163.27314234803788 109.74110318311956 3.0 2.7844324457978455 113.33895393611756 3.0 183.96829712253762 112.90955495411342 3.0 141.29035506917876 114.41635461737648 3.0 67.9122498624874 124.28896448850392 3.0 24.056557360841747 121.59468718699465 3.0 197.21556755420215 135.5866458830946 3.0 10.482331395541074 148.14673594048674 3.0 18.909644184403277 159.75318686662064 3.0 167.18884780563263 148.31627316463508 3.0 33.058194611320033 157.58211477412618 3.0 161.47761884018499 161.43894654307533 3.0 144.45555702900086 165.03565375338965 3.0 165.34876117723434 166.51478315310681 3.0 94.917122722328187 166.30182405027696 3.0 103.16023481955538 168.84606655043888 3.0 145.39005179994356 179.21615279414172 3.0 183.51013670159583 183.02361534888229 3.0 193.64558175005135 193.60936551372589 3.0 92.944687880742947 197.21556755420215 3.0 187.28514033387168 193.56153797085335 3.0 118.46905128464719 12.059753876726433 2 74.543016978438501 7.0370214888266185 2 12.039167605993155 26.835575545330279 2 135.46035885150039 39.932037379965514 2 24.25097171628293 28.651909449311198 2 179.78957033880712 34.093373376231554 2 193.19953494235253 29.755627724794106 2 140.32496880916244 38.886246104769917 2 32.258219662077998 35.244631574295326 2 165.10237428928642 54.840093073721043 2 185.07453379035962 55.706842570509913 2 81.622753638256199 51.788550744442631 2 197.21556755420215 69.18486471941894 2 77.951136175094163 70.235476514120847 2 105.31186148701752 75.305963457842282 2 173.38807379676564 60.572898299362592 2 152.39793709927278 68.024834645844379 2 140.29349273624427 89.103096003778845 2 75.818286491396165 91.545717412236641 2 97.804722519624761 80.854874102037726 2 170.40590786403399 95.828223630150504 2 67.569463767219005 87.254753184532248 2 190.42421351416007 89.634021884329016 2 2.7844324457978455 91.034677935708359 2 197.21556755420215 106.46799231299865 2 151.66002676620946 104.89525611107238 2 11.798434045600278 108.91672135877934 2 192.99882935788355 120.6067361413634 2 173.77640281690992 115.44580327861678 2 72.64839836051371 115.66070874398309 2 28.176362064515775 129.90461410249327 2 22.375298177126485 136.97684379584825 2 2.7844324457978455 145.35686959369826 2 15.535356245946195 132.16858584499272 2 141.04358734787314 137.35449458502899 2 155.88525770560139 145.86011369715388 2 9.2350606509673856 152.08241918922175 2 151.43909369158604 154.90510172380121 2 156.32912581683158 171.54021452923888 2 91.966557613627685 175.74940155426586 2 173.86228631007216 179.30867146929523 2 105.48574144264056 176.65595463486898 2 150.90748711732468 188.67383007192075 2 190.53120036136565 179.52138426002196 2 197.21556755420215 187.1656956692635 2 87.361897067905375 188.2760282186828 2 8.563252667355588 188.40662477161024 2 168.15299552009719 197.21556755420215 2 31.078278454448213 2.6290979429048793 2 123.09342920537902 2.7844324457978455 2 77.151314506701638 11.182445281511109 2 29.495380367856459 22.932233343857835 2 55.310844240483824 17.284049446825794 2 124.90519043199333 29.031364584670762 2 20.097245936580165 31.203243018253239 2 169.63233175043391 36.770872475336354 2 185.19933929056828 32.817510762375356 2 71.938233915958307 36.657345293591995 2 145.47221044963445 44.300599827041843 2 31.857934316525817 40.863446935952645 2 154.82082083279678 51.780771360013766 2 193.18519200382497 47.010533414408343 2 106.46047574198423 58.312606589976987 2 90.570001645978536 56.163820616180679 2 192.72119190656687 67.419805723631796 2 93.24786900834799 71.552222339497035 2 74.63472642193274 81.77025070089752 2 80.75783259972215 93.401280851323421 2 180.55580361804635 92.681751078439916 2 15.393494894556961 92.189033058619003 2 172.6930715101347 100.7425069948298 2 139.51229067912075 99.963132646383698 2 167.98296276766337 108.07671238119734 2 192.94821223891557 111.87345105977913 2 144.94397075725479 112.35262571767262 2 192.05353891767692 125.07313619306133 2 25.911269419529535 117.42072804527218 2 33.454678981052204 125.18098533149968 2 24.382431150733574 133.27671106387655 2 30.451850915087789 146.36129544880592 2 197.21556755420215 139.27088924709395 2 11.235319459851262 143.24875456044455 2 197.21556755420215 147.63219336099425 2 25.921442548775882 150.36090452705793 2 26.323790031433614 158.28892911272422 2 169.76903288351076 158.63693865407677 2 2.7844324457978455 163.27397889009066 2 45.720360780961109 156.43817516326109 2 161.69437353980356 165.30640224525362 2 150.79702299366855 179.49398484320398 2 29.430210939999085 180.85522642387011 2 174.98973243845029 185.87143798727186 2 190.32280912839377 192.78586397530782 2 84.689621401272547 192.61701901767879 2 7.6841528543718587 193.27969601292878 2 175.1133071005026 192.77676709659897 2 116.00645677537123 16.462933825650691 2 66.45827070190505 11.106565936735246 2 11.504184476675942 21.410122426721124 2 115.66338743556668 21.400584645349262 2 136.18031983305355 28.681137297257642 2 40.052418123678713 22.647142692635729 2 177.2806864508367 38.514274101738224 2 120.31342266619514 30.279168886189144 2 160.43285585413565 42.199288003738658 2 183.38507282019424 46.216473136385829 2 97.513856532003857 50.935439034573008 2 86.120119940966461 67.967676882305369 2 196.00856433663577 59.511741269453907 2 90.884704426133311 75.253910691606976 2 131.46569583149957 82.871965411556786 2 91.894007083749472 97.215648713873321 2 188.52722778672691 99.059869210513412 2 197.21556755420215 94.085740675217153 2 70.056963683270993 111.52951020734922 2 159.85824064206926 102.26169804242285 2 7.3111138994767408 107.13101790013508 2 188.10431570662337 118.11119071722236 2 171.96034293160864 123.85621248712071 2 34.564985867210105 137.3061066506242 2 146.87903145540102 129.18858883871997 2 19.150187616922999 144.96915008974113 2 2.7844324457978455 133.40141517369415 2 38.978019304529511 135.73005883341588 2 13.818541140815661 139.1357497071096 2 16.820183773683354 152.09682022264138 2 162.53095744486481 148.60824292296545 2 36.962318156830108 159.31755575455264 2 2.7844324457978455 157.51317870949444 2 125.8606256202268 159.47020698986285 2 43.789370425807874 160.79568211480722 2 44.968432318310164 151.51186430126347 2 141.87280534723672 156.8750707905576 2 162.70681632186012 177.39088588045885 2 95.418517466500674 184.11673147128278 2 172.13897327847008 175.06279586266768 2 107.58932660077483 185.94103020740374 2 160.33811414779149 181.75251838883207 2 197.21556755420215 183.68507735913985 2 172.85906923467221 197.21556755420215 2 39.792061780110579 2.604196630528539 2 80.116072226869704 7.0448647636707777 2 133.31182001790762 5.3218547037727353 2 7.8988311671608296 30.049904287089024 2 129.82211865446976 26.923349968622524 2 191.85957405968756 38.669037768581973 2 17.11647102869965 43.487036734327731 2 150.23295431414832 48.993831701441152 2 197.21556755420215 47.97820776336183 2 21.451039986858902 55.925107044262383 2 83.076672363178332 71.916823186404898 2 147.67927406052675 77.050135520232942 2 129.89164769983029 77.710527405292623 2 74.476410735374955 77.346225557951286 2 83.745901766253212 85.710130472733184 2 193.183694304949 85.530735447115092 2 17.989191069368353 102.11319681161881 2 186.75133860923634 103.2716687588715 2 74.327232486252257 99.113963403188038 2 129.10585232945482 100.88771881319647 2 158.62343042383833 111.44474822402421 2 180.20436132543674 109.90967112866485 2 143.34221168670351 107.64079852599578 2 182.02537438296727 124.86042356265223 2 29.062597430810342 113.1670953364152 2 67.1674388249522 128.8059336629355 2 71.749693454254285 127.62431284825777 2 147.21248263383302 134.64946734231037 2 7.0196251004389465 131.9300581898251 2 193.55565079937608 128.26637933177281 2 6.34795042092267 149.80109761217071 2 146.03823235286049 147.85617355325101 2 25.42979874368984 154.27397315888493 2 169.78590450451077 153.24331269546974 2 154.11543655237713 158.52384538825441 2 146.45080211315533 169.7291960935346 2 90.348422126897262 152.99015942884677 2 169.25107658343242 166.71961736288054 2 98.199942747346469 169.7279024860706 2 181.35833081106713 180.38711583147395 2 197.21556755420215 197.21556755420215 2 95.635256734030307 192.89908857796914 2 190.49354190976032 197.21556755420215 2 89.330827599177596 2.5844324457978454 2 128.58024944831945 14.392408203333845 2 76.913789456998643 2.7844324457978455 2 15.799321585169569 19.073131827501662 2 112.5457135039677 25.473082896600658 2 130.37695183678122 41.908778264584775 2 32.060313607028803 30.147274349992841 2 187.19966016256745 37.443805746005644 2 121.39496051174115 40.06253627201793 2 142.4545267572488 35.010649187599981 2 160.56952465079505 51.952991547549729 2 180.4470550100595 52.072980189659596 2 25.887067447416086 50.70123989943491 2 86.761305586176306 50.77532604003104 2 197.21556755420215 64.162933899403058 2 73.771595123057153 68.379795375512941 2 169.0479878609226 65.982644527738202 2 156.79854678676278 76.317290327442876 2 130.85052092625492 88.795269611405857 2 72.004958690054352 95.009258929910416 2 92.515654041914502 86.690581952538494 2 197.21556755420215 88.223260811475996 2 2.7844324457978455 99.977737143186829 2 193.07032203165556 107.27918443055697 2 134.24158594967724 108.12091262799514 2 153.41752123144661 110.98875704259385 2 13.037186158226007 104.08631686855389 2 197.21556755420215 114.73506321255091 2 147.00002628837817 123.88960543031982 2 177.05336352420198 124.99128087084344 2 58.87223014546678 124.41429558348013 2 72.631809884433835 123.4247285397105 2 32.911793276166797 133.6106377548214 2 19.766386297030653 134.08861108448502 2 6.2214645818657406 136.32046016006126 2 192.94467779623548 132.47242369823937 2 11.376718594385377 162.56244478714837 2 37.332701444939254 163.21741792068084 2 160.69379031777149 153.64132843687617 2 7.8353051179674091 159.92291968220792 2 149.51582227966571 159.69335304419846 2 158.61245909551536 175.51506801938615 2 101.16162105189272 178.22215065538049 2 169.61937933351444 179.1965951087505 2 100.68675101313958 183.30586546883617 2 158.51388331613944 186.56078985635367 2 187.3816417843382 185.09454878351804 2 193.56761051460663 186.27116736536635 2 90.313136171515026 184.55492472995886 2 165.54463478156623 192.4093961734944 2 120.37633136713904 7.4473025152069594 2 71.577611913568418 11.832383784781261 2 50.824156682976309 22.797961098859609 2 125.33915454256422 24.002002641936279 2 20.079713030053238 26.192478695458576 2 174.3926327233778 34.268890065746234 2 193.57550876972431 34.712004078869576 2 67.104331504851217 38.171877329461495 2 151.26041603818285 38.634270514287792 2 154.2765899230815 57.077468164887009 2 197.21556755420215 40.268254974431429 2 80.16190870858054 57.012212184703976 2 79.08872801668619 79.361280478984881 2 86.83232210324185 95.044604066957277 2 196.0803630315182 80.849276453185112 2 62.281903619955322 80.949458632202663 2 185.62858717535485 91.119040360372068 2 11.636931444128409 88.810073349118042 2 172.33459320250353 105.70358074554939 2 134.18014369353116 102.82221952310839 2 163.06253763677228 117.02924587622188 2 14.140869198293609 113.12135180554407 2 188.54641815880967 114.32109584894152 2 150.16412425846781 120.18833105882753 2 76.420163688362479 125.46705310092881 2 34.734761165834335 120.74443796600183 2 149.95461649307506 139.31915507968955 2 23.216283036007976 125.35519848613308 2 27.210297128584607 142.80797114203463 2 197.21556755420215 143.29185795697185 2 15.616364361358054 147.0146465375596 2 141.88811283933646 147.15578028077977 2 197.61556755420216 155.84056736580973 2 29.48608605972133 151.12595602817808 2 170.7491945301484 162.58505961957266 2 47.072496726597478 165.01054153693124 2 94.923524732552181 161.59135639834668 2 157.184687227631 162.99962890034422 2 147.88915983362662 174.92272772390564 2 167.67672243609283 188.11628482721741 2 183.6691237464839 192.89061392798257 2 76.661932522492648 196.83348678923659 2 2.7844324457978455 192.9932523602952 2 179.95331930077026 185.19200016613522 2 120.89163681124388 21.356243026489917 2 108.29790272016338 23.119507771587536 2 141.08041822721202 30.388179532498576 2 181.42730562798067 41.988545322925752 2 115.64996506638023 30.601994282501309 2 36.399123716917202 30.452084022363849 2 168.30802109329028 48.942290526816713 2 190.9658197048519 50.392419174116561 2 186.2159943126191 60.498879169426687 2 86.523707218130781 76.150752886043733 2 174.06350305661968 65.909400332938063 2 147.79664325931236 70.993920374897868 2 77.283594480554811 96.181511102129534 2 87.944693276285193 88.504534179993797 2 180.29659130548566 97.260539360145017 2 192.34178229828589 102.24954375501724 2 130.65544510466455 111.62494401718438 2 162.05024733437446 97.347120402981687 2 7.914374605330174 102.20556106814048 2 183.05587380781895 117.0501229778756 2 38.695906338597787 123.47245405149226 2 30.321797065956776 141.43196101240903 2 16.669534716150419 141.72321123374769 2 2.7844324457978455 141.45619669205155 2 36.557371631180473 132.00916784815479 2 8.7288494476635456 145.1339165022722 2 170.0355535076952 143.45672961817857 2 13.213206820066773 153.81577777552715 2 165.08380133137663 152.62005434975222 2 32.86359891553095 162.03843099100493 2 152.37468492764657 142.96425487589013 2 2.7844324457978455 153.10544950932982 2 41.966605824980775 153.78386539927905 2 146.69054952289858 155.89987568442876 2 161.41688423159098 169.89537506766848 2 98.08673015243923 188.34342039729253 2 197.41556755420214 172.30948135274829 2 175.47085638782983 170.58175636468309 2 103.0860154976842 188.00514919044599 2 163.30705911642116 185.91393149119315 2 197.21556755420215 179.2760866767604 2 80.767593961730668 183.17817568713431 2 180.64799392099331 197.21556755420215 2 99.960602080860738 68.32833436923022 2 33.081693087391763 149.70556022784029 2 43.578373860291798 136.5180342519364 2 11.147102356930414 130.76402015023251 2 88.935584465521089 59.766200558383424 2 94.687883370879803 77.23235379269066 2 95.76732727029372 66.198409569093556 2 111.38077575700657 60.250995591496867 2 27.028176012707668 38.069023940952285 2 43.02649633516878 147.57350687194148 2 82.041359217302457 2.7844324457978455 2 125.52286190460538 6.958378010889648 2 6.3321033327201084 21.50985844408827 2 197.21556755420215 32.076699364889556 2 146.3379120833323 31.916012823271853 2 155.16693770786674 43.589847560601221 2 193.40519584536679 54.622966097903372 2 83.791309584536677 64.100865149394664 2 183.91634384995513 65.045669641064222 2 143.50958472080956 73.993283201465459 2 137.79991204756192 76.667634040317196 2 65.214095758909153 77.509265633491566 2 90.18739147433574 79.918249124203726 2 179.21111692534711 84.498686973837792 2 10.720817163431281 94.030619195290456 2 178.00929357773683 101.51870914575659 2 74.259288820162595 108.5907175183201 2 129.60203435004024 95.520522829939935 2 164.50344943586842 104.5441576869304 2 2.7844324457978455 109.06776935825238 2 188.53168258329188 110.3538174740065 2 144.83620239801817 118.73012214674404 2 37.480437969893352 114.25623930774907 2 62.646985669377024 119.73266752278394 2 29.089840595166521 122.29141625522763 2 197.21556755420215 131.89945299143923 2 13.36272526672823 149.61251443481427 2 22.110859126192892 157.97711356527248 2 171.16168657387723 148.29126230066646 2 162.74370374238612 157.52133631155965 2 166.74617197444707 170.72858483360767 2 99.899521832998545 165.51521962902058 2 187.01579713981423 181.48711188479618 2 197.21556755420215 190.34944866669352 2 98.413282250399988 197.21556755420215 2 12.368290434689284 192.31279913225868 2 187.18470835118845 197.21556755420215 2 123.86809828338376 11.669481263275246 2 69.405535053404179 7.3218504367482149 2 15.60907239379506 29.662645571739208 2 131.73542916136179 36.57343965272392 2 27.23399817415233 32.601985128701635 2 182.2770910760857 30.281844200272047 2 197.21556755420215 27.340771899719403 2 116.19520387946365 39.678062435328293 2 159.74750053214302 57.289285960399532 2 188.94015339244766 54.077421873167665 2 85.460773196424412 55.479269165396822 2 197.21556755420215 74.450896263707605 2 78.468887692895962 74.466205635923984 2 167.66703650579814 60.720266597033856 2 152.15341362269649 73.74727708607432 2 140.49909022350928 83.678216564403257 2 71.127203012957651 90.136203378149546 2 97.367522018544349 85.679301334729558 2 167.50445071680886 100.3009013097259 2 70.883125689384755 84.702497985689931 2 189.4762382285268 94.288513440724344 2 197.21556755420215 102.67048951392734 2 154.64100376360244 100.44481467241356 2 7.8880498411783408 112.56676005734931 2 197.21556755420215 123.54916021114533 2 155.5285256398235 121.45029884081538 2 175.39935922086642 119.89625342143025 2 69.746870193364458 119.88527084074039 2 23.782479040455918 129.34489699862138 2 21.899943085881411 142.15653401631943 2 2.7844324457978455 149.26558319567525 2 141.58624020909895 142.19010996454205 2 153.48529318600521 150.26926255083771 2 9.6773867039176871 156.20449471943493 2 156.13027702043181 154.06078775954319 2 153.09710325377651 167.29520072376954 2 91.446404722403329 180.31841277476528 2 177.96705257165561 178.2125007445961 2 109.80739271221987 178.1666104272968 2 153.87902326076841 184.26710268404429 2 191.36218374370924 183.44139132555756 2 193.11162451171418 189.97898537255182 2 82.232690050845449 187.6787254801709 2 12.97996288263327 187.82809533079111 2 170.46800306785056 193.02014786797204 2 118.07826612632861 2.7844324457978455 2 24.701229375202722 23.613590566007172 2 127.92022145646894 33.065530484369063 2 16.205935785338657 34.532471593547221 2 171.5540050881709 41.843703254680356 2 189.01753451999721 29.126721811637221 2 145.91259396088068 38.836539164071212 2 188.33784707266651 46.327591049242102 2 192.8811322788431 72.049014425523751 2 73.42657852009566 72.782768782137126 2 75.158449613544207 86.635805140041199 2 79.640711241473127 88.465733332484689 2 175.06968765301139 92.723147281703874 2 19.985443504833253 90.36504980864801 2 175.67668093663752 97.086681495179477 2 138.79104902866743 105.1495845421512 2 170.99490868819686 111.68021168457608 2 197.21556755420215 110.50486584726944 2 148.81862842501442 114.97730235324849 2 188.95942978133738 122.42617225714611 2 23.541836037964902 112.72417659167883 2 28.042925513264134 126.07931829911972 2 28.964986350452502 133.477200978301 2 26.686533256825221 146.69091687986182 2 192.68753271744683 136.6975859289783 2 13.985398478301475 144.26971674161925 2 193.73342050286877 145.06959008809622 2 22.20008469495961 149.64586187879883 2 29.403943794493994 160.1912437563949 2 165.9418216497435 161.95649847015329 2 2.7844324457978455 167.79988589357023 2 47.552622928872026 160.61413679239257 2 157.58153818972229 167.38719654693566 2 148.60422211987466 183.87342639422346 2 171.94569926645093 188.87904126309891 2 186.65222823818624 189.8539371629426 2 87.532688559171987 197.21556755420215 2 10.854245786110681 197.21556755420215 2 181.05225918479451 189.56379683153168 2 7.7584201016859202 25.196370891318718 2 111.05753076644028 19.467999683749724 2 132.50271285042558 31.456661976046295 2 176.45103761603841 43.407649911943395 2 118.32301749817589 35.