<?xml version="1.0" ?>
<VTKFile byte_order="LittleEndian" type="UnstructuredGrid" version="0.1">
<UnstructuredGrid>
<Piece NumberOfCells="0" NumberOfPoints="80">
<Points>
<DataArray NumberOfComponents="3" format="ascii" type="Float32">24.600000000000009 3.1000000000000005 3.0 89.0 8.9684106575496223 3.0 123.0 9.9684106575496223 3.0 76.0 16.968410657549629 3.0 9.0 18.968410657549629 3.0 21.0 20.968410657549629 3.0 62.0 21.968410657549629 3.0 103.0 21.968410657549629 3.0 134.0 30.968410657549629 3.0 24.094936841825337 31.810182587840732 3.0 179.0 34.968410657549605 3.0 194.0 35.968410657549605 3.0 114.0 36.968410657549605 3.0 68.0 37.968410657549605 3.0 144.0 37.968410657549605 3.0 29.0 39.968410657549605 3.0 53.0 44.968410657549605 3.0 14.0 45.968410657549605 3.0 156.0 48.968410657549605 3.0 195.0 50.968410657549605 3.0 21.0 57.968410657549605 3.0 99.0 57.968410657549605 3.0 91.90506315817467 59.810182587840721 3.0 84.0 64.968410657549654 3.0 191.0 66.968410657549654 3.0 76.0 68.968410657549654 3.0 100.0 70.968410657549654 3.0 176.0 72.968410657549654 3.0 143.0 73.968410657549654 3.0 134.0 79.968410657549654 3.0 75.0 87.968410657549654 3.0 84.0 87.968410657549654 3.0 181.09289628268212 88.727051907517506 3.0 63.0 89.968410657549654 3.0 184.21864249138741 94.117514631313142 3.0 8.0 95.968410657549654 3.0 185.04582131840237 100.26858711047073 3.0 72.0 106.96841065754965 3.0 134.0 106.96841065754965 3.0 160.0 109.96841065754965 3.0 4.0 112.96841065754965 3.0 187.0 117.96841065754965 3.0 143.0 119.96841065754965 3.0 185.0 124.96841065754965 3.0 35.841771930291102 127.87347381572432 3.0 66.0 128.96841065754961 3.0 74.0 128.96841065754961 3.0 33.009636860646609 133.91058949366996 3.0 146.0 133.96841065754961 3.0 21.0 135.96841065754961 3.0 4.0 139.96841065754961 3.0 31.990363139353391 140.02623182142926 3.0 196.90000000000001 139.96841065754961 3.0 43.0 140.96841065754961 3.0 9.0 146.96841065754961 3.0 142.0 147.96841065754961 3.0 175.0 148.96841065754961 3.0 195.0 148.96841065754961 3.0 19.0 153.96841065754961 3.0 169.0 153.96841065754961 3.0 31.0 154.96841065754961 3.0 161.0 154.96841065754961 3.0 10.0 155.96841065754961 3.0 121.0 156.96841065754961 3.0 40.0 157.96841065754961 3.0 48.0 158.96841065754961 3.0 149.0 159.96841065754961 3.0 96.0 160.96841065754961 3.0 163.0 167.96841065754961 3.0 94.841771930291117 173.87347381572425 3.0 195.0 173.96841065754961 3.0 181.0 174.96841065754961 3.0 100.15822806970888 177.06334749937497 3.0 151.0 181.96841065754961 3.0 28.0 185.96841065754961 3.0 186.0 187.96841065754961 3.0 193.0 191.96841065754961 3.0 89.0 193.96841065754961 3.0 16.0 194.96841065754961 3.0 186.0 194.96841065754961 3.0 </DataArray>
</Points>
<Cells>
<DataArray Name="connectivity" format="ascii" type="Int32">0</DataArray>
<DataArray Name="offsets" format="ascii" type="Int32">0</DataArray>
<DataArray Name="types" format="ascii" type="UInt8">1</DataArray>
</Cells>
<PointData>
<DataArray Name="Points" NumberOfComponents="3" format="ascii" type="Float32">24.600000000000009 3.1000000000000005 3.0 89.0 8.9684106575496223 3.0 123.0 9.9684106575496223 3.0 76.0 16.968410657549629 3.0 9.0 18.968410657549629 3.0 21.0 20.968410657549629 3.0 62.0 21.968410657549629 3.0 103.0 21.968410657549629 3.0 134.0 30.968410657549629 3.0 24.094936841825337 31.810182587840732 3.0 179.0 34.968410657549605 3.0 194.0 35.968410657549605 3.0 114.0 36.968410657549605 3.0 68.0 37.968410657549605 3.0 144.0 37.968410657549605 3.0 29.0 39.968410657549605 3.0 53.0 44.968410657549605 3.0 14.0 45.968410657549605 3.0 156.0 48.968410657549605 3.0 195.0 50.968410657549605 3.0 21.0 57.968410657549605 3.0 99.0 57.968410657549605 3.0 91.90506315817467 59.810182587840721 3.0 84.0 64.968410657549654 3.0 191.0 66.968410657549654 3.0 76.0 68.968410657549654 3.0 100.0 70.968410657549654 3.0 176.0 72.968410657549654 3.0 143.0 73.968410657549654 3.0 134.0 79.968410657549654 3.0 75.0 87.968410657549654 3.0 84.0 87.968410657549654 3.0 181.09289628268212 88.727051907517506 3.0 63.0 89.968410657549654 3.0 184.21864249138741 94.117514631313142 3.0 8.0 95.968410657549654 3.0 185.04582131840237 100.26858711047073 3.0 72.0 106.96841065754965 3.0 134.0 106.96841065754965 3.0 160.0 109.96841065754965 3.0 4.0 112.96841065754965 3.0 187.0 117.96841065754965 3.0 143.0 119.96841065754965 3.0 185.0 124.96841065754965 3.0 35.841771930291102 127.87347381572432 3.0 66.0 128.96841065754961 3.0 74.0 128.96841065754961 3.0 33.009636860646609 133.91058949366996 3.0 146.0 133.96841065754961 3.0 21.0 135.96841065754961 3.0 4.0 139.96841065754961 3.0 31.990363139353391 140.02623182142926 3.0 196.90000000000001 139.96841065754961 3.0 43.0 140.96841065754961 3.0 9.0 146.96841065754961 3.0 142.0 147.96841065754961 3.0 175.0 148.96841065754961 3.0 195.0 148.96841065754961 3.0 19.0 153.96841065754961 3.0 169.0 153.96841065754961 3.0 31.0 154.96841065754961 3.0 161.0 154.96841065754961 3.0 10.0 155.96841065754961 3.0 121.0 156.96841065754961 3.0 40.0 157.96841065754961 3.0 48.0 158.96841065754961 3.0 149.0 159.96841065754961 3.0 96.0 160.96841065754961 3.0 163.0 167.96841065754961 3.0 94.841771930291117 173.87347381572425 3.0 195.0 173.96841065754961 3.0 181.0 174.96841065754961 3.0 100.15822806970888 177.06334749937497 3.0 151.0 181.96841065754961 3.0 28.0 185.96841065754961 3.0 186.0 187.96841065754961 3.0 193.0 191.96841065754961 3.0 89.0 193.96841065754961 3.0 16.0 194.96841065754961 3.0 186.0 194.96841065754961 3.0 </DataArray>
<DataArray Name="forces" NumberOfComponents="3" format="ascii" type="Float32">0.0 0.0 0.0 0.0 0.0 0.0 0.0 0.0 0.0 0.0 0.0 0.0 0.0 0.0 0.0 0.0 0.0 0.0 0.0 0.0 0.0 0.0 0.0 0.0 0.0 0.0 0.0 0.0 0.0 0.0 0.0 0.0 0.0 0.0 0.0 0.0 0.0 0.0 0.0 0.0 0.0 0.0 0.0 0.0 0.0 0.0 0.0 0.0 0.0 0.0 0.0 0.0 0.0 0.0 0.0 0.0 0.0 0.0 0.0 0.0 0.0 0.0 0.0 0.0 0.0 0.0 0.0 0.0 0.0 0.0 0.0 0.0 0.0 0.0 0.0 0.0 0.0 0.0 0.0 0.0 0.0 0.0 0.0 0.0 0.0 0.0 0.0 0.0 0.0 0.0 0.0 0.0 0.0 0.0 0.0 0.0 0.0046577765254412345 -0.048267652832938782 0.0 0.0 0.0 0.0 0.035342815140128755 0.015737672189270503 0.0 0.0 0.0 0.0 0.008569618816286281 0.05972574719470982 0.0 0.0 0.0 0.0 0.0 0.0 0.0 0.0 0.0 0.0 0.0 0.0 0.0 0.0 0.0 0.0 0.0 0.0 0.0 0.0 0.0 0.0 0.0 0.0 0.0 0.0 0.0 0.0 0.0 0.0 0.0 0.0 0.0 0.0 0.0 0.0 0.0 0.0 0.0 0.0 0.0 0.0 0.0 0.0 0.0 0.0 0.0 0.0 0.0 0.0 0.0 0.0 0.0 0.0 0.0 0.0 0.0 0.0 0.0 0.0 0.0 0.0 0.0 0.0 0.0 0.0 0.0 0.0 0.0 0.0 0.0 0.0 0.0 0.0 0.0 0.0 0.0 0.0 0.0 0.0 0.0 0.0 0.0 0.0 0.0 0.0 0.0 0.0 0.0 0.0 0.0 0.0 0.0 0.0 0.0 0.0 0.0 0.0 0.0 0.0 0.0 0.0 0.0 0.0 0.0 0.0 0.0 0.0 0.0 0.0 0.0 0.0 0.0 0.0 0.0 0.0 0.0 0.0 0.0 0.0 0.0 0.0 0.0 0.0 0.0 0.0 0.0 0.0 0.0 0.0 </DataArray>
<DataArray Name="radii" format="ascii" type="Float32">3.1000000000000005 3.1000000000000005 3.1000000000000005 3.1000000000000005 3.1000000000000005 3.1000000000000005 3.1000000000000005 3.1000000000000005 3.1000000000000005 3.1000000000000005 3.1000000000000005 3.1000000000000005 3.1000000000000005 3.1000000000000005 3.1000000000000005 3.1000000000000005 3.1000000000000005 3.1000000000000005 3.1000000000000005 3.1000000000000005 3.1000000000000005 3.1000000000000005 3.1000000000000005 3.1000000000000005 3.1000000000000005 3.1000000000000005 3.1000000000000005 3.1000000000000005 3.1000000000000005 3.1000000000000005 3.1000000000000005 3.1000000000000005 3.1000000000000005 3.1000000000000005 3.1000000000000005 3.1000000000000005 3.1000000000000005 3.1000000000000005 3.1000000000000005 3.1000000000000005 3.1000000000000005 3.1000000000000005 3.1000000000000005 3.1000000000000005 3.1000000000000005 3.1000000000000005 3.1000000000000005 3.1000000000000005 3.1000000000000005 3.1000000000000005 3.1000000000000005 3.1000000000000005 3.1000000000000005 3.1000000000000005 3.1000000000000005 3.1000000000000005 3.1000000000000005 3.1000000000000005 3.1000000000000005 3.1000000000000005 3.1000000000000005 3.1000000000000005 3.1000000000000005 3.1000000000000005 3.1000000000000005 3.1000000000000005 3.1000000000000005 3.1000000000000005 3.1000000000000005 3.1000000000000005 3.1000000000000005 3.1000000000000005 3.1000000000000005 3.1000000000000005 3.1000000000000005 3.1000000000000005 3.1000000000000005 3.1000000000000005 3.1000000000000005 3.1000000000000005 </DataArray>
</PointData>
<CellData/>
</Piece>
</UnstructuredGrid>
</VTKFile>
