<?xml version="1.0" ?>
<VTKFile byte_order="LittleEndian" type="UnstructuredGrid" version="0.1">
<UnstructuredGrid>
<Piece NumberOfCells="0" NumberOfPoints="80">
<Points>
<DataArray NumberOfComponents="3" format="ascii" type="Float32">24.0 3.0 3.0 89.0 9.0 3.0 123.0 10.0 3.0 76.0 17.0 3.0 9.0 19.0 3.0 21.0 21.0 3.0 62.0 22.0 3.0 103.0 22.0 3.0 134.0 31.0 3.0 24.0 32.0 3.0 179.0 35.0 3.0 194.0 36.0 3.0 114.0 37.0 3.0 68.0 38.0 3.0 144.0 38.0 3.0 29.0 40.0 3.0 53.0 45.0 3.0 14.0 46.0 3.0 156.0 49.0 3.0 195.0 51.0 3.0 21.0 58.0 3.0 99.0 58.0 3.0 92.0 60.0 3.0 84.0 65.0 3.0 191.0 67.0 3.0 76.0 69.0 3.0 100.0 71.0 3.0 176.0 73.0 3.0 143.0 74.0 3.0 134.0 80.0 3.0 75.0 88.0 3.0 84.0 88.0 3.0 181.0 89.0 3.0 63.0 90.0 3.0 184.0 94.0 3.0 8.0 96.0 3.0 185.0 100.0 3.0 72.0 107.0 3.0 134.0 107.0 3.0 160.0 110.0 3.0 4.0 113.0 3.0 187.0 118.0 3.0 143.0 120.0 3.0 185.0 125.0 3.0 36.0 128.0 3.0 66.0 129.0 3.0 74.0 129.0 3.0 33.0 134.0 3.0 146.0 134.0 3.0 21.0 136.0 3.0 4.0 140.0 3.0 32.0 140.0 3.0 197.0 140.0 3.0 43.0 141.0 3.0 9.0 147.0 3.0 142.0 148.0 3.0 175.0 149.0 3.0 195.0 149.0 3.0 19.0 154.0 3.0 169.0 154.0 3.0 31.0 155.0 3.0 161.0 155.0 3.0 10.0 156.0 3.0 121.0 157.0 3.0 40.0 158.0 3.0 48.0 159.0 3.0 149.0 160.0 3.0 96.0 161.0 3.0 163.0 168.0 3.0 95.0 174.0 3.0 195.0 174.0 3.0 181.0 175.0 3.0 100.0 177.0 3.0 151.0 182.0 3.0 28.0 186.0 3.0 186.0 188.0 3.0 193.0 192.0 3.0 89.0 194.0 3.0 16.0 195.0 3.0 186.0 195.0 3.0 </DataArray>
</Points>
<Cells>
<DataArray Name="connectivity" format="ascii" type="Int32">0</DataArray>
<DataArray Name="offsets" format="ascii" type="Int32">0</DataArray>
<DataArray Name="types" format="ascii" type="UInt8">1</DataArray>
</Cells>
<PointData>
<DataArray Name="Points" NumberOfComponents="3" format="ascii" type="Float32">24.0 3.0 3.0 89.0 9.0 3.0 123.0 10.0 3.0 76.0 17.0 3.0 9.0 19.0 3.0 21.0 21.0 3.0 62.0 22.0 3.0 103.0 22.0 3.0 134.0 31.0 3.0 24.0 32.0 3.0 179.0 35.0 3.0 194.0 36.0 3.0 114.0 37.0 3.0 68.0 38.0 3.0 144.0 38.0 3.0 29.0 40.0 3.0 53.0 45.0 3.0 14.0 46.0 3.0 156.0 49.0 3.0 195.0 51.0 3.0 21.0 58.0 3.0 99.0 58.0 3.0 92.0 60.0 3.0 84.0 65.0 3.0 191.0 67.0 3.0 76.0 69.0 3.0 100.0 71.0 3.0 176.0 73.0 3.0 143.0 74.0 3.0 134.0 80.0 3.0 75.0 88.0 3.0 84.0 88.0 3.0 181.0 89.0 3.0 63.0 90.0 3.0 184.0 94.0 3.0 8.0 96.0 3.0 185.0 100.0 3.0 72.0 107.0 3.0 134.0 107.0 3.0 160.0 110.0 3.0 4.0 113.0 3.0 187.0 118.0 3.0 143.0 120.0 3.0 185.0 125.0 3.0 36.0 128.0 3.0 66.0 129.0 3.0 74.0 129.0 3.0 33.0 134.0 3.0 146.0 134.0 3.0 21.0 136.0 3.0 4.0 140.0 3.0 32.0 140.0 3.0 197.0 140.0 3.0 43.0 141.0 3.0 9.0 147.0 3.0 142.0 148.0 3.0 175.0 149.0 3.0 195.0 149.0 3.0 19.0 154.0 3.0 169.0 154.0 3.0 31.0 155.0 3.0 161.0 155.0 3.0 10.0 156.0 3.0 121.0 157.0 3.0 40.0 158.0 3.0 48.0 159.0 3.0 149.0 160.0 3.0 96.0 161.0 3.0 163.0 168.0 3.0 95.0 174.0 3.0 195.0 174.0 3.0 181.0 175.0 3.0 100.0 177.0 3.0 151.0 182.0 3.0 28.0 186.0 3.0 186.0 188.0 3.0 193.0 192.0 3.0 89.0 194.0 3.0 16.0 195.0 3.0 186.0 195.0 3.0 </DataArray>
<DataArray Name="forces" NumberOfComponents="3" format="ascii" type="Float32">0.0 0.0 0.0 0.0 0.0 0.0 0.0 0.0 0.0 0.0 0.0 0.0 0.0 0.0 0.0 0.0 0.0 0.0 0.0 0.0 0.0 0.0 0.0 0.0 0.0 0.0 0.0 0.0 0.0 0.0 0.0 0.0 0.0 0.0 0.0 0.0 0.0 0.0 0.0 0.0 0.0 0.0 0.0 0.0 0.0 0.0 0.0 0.0 0.0 0.0 0.0 0.0 0.0 0.0 0.0 0.0 0.0 0.0 0.0 0.0 0.0 0.0 0.0 0.0 0.0 0.0 0.0 0.0 0.0 0.0 0.0 0.0 0.0 0.0 0.0 0.0 0.0 0.0 0.0 0.0 0.0 0.0 0.0 0.0 0.0 0.0 0.0 0.0 0.0 0.0 0.0 0.0 0.0 0.0 0.0 0.0 0.0 0.0 0.0 0.0 0.0 0.0 0.0 0.0 0.0 0.0 0.0 0.0 0.0 0.0 0.0 0.0 0.0 0.0 0.0 0.0 0.0 0.0 0.0 0.0 0.0 0.0 0.0 0.0 0.0 0.0 0.0 0.0 0.0 0.0 0.0 0.0 0.0 0.0 0.0 0.0 0.0 0.0 0.0 0.0 0.0 0.0 0.0 0.0 0.0 0.0 0.0 0.0 0.0 0.0 0.0 0.0 0.0 0.0 0.0 0.0 0.0 0.0 0.0 0.0 0.0 0.0 0.0 0.0 0.0 0.0 0.0 0.0 0.0 0.0 0.0 0.0 0.0 0.0 0.0 0.0 0.0 0.0 0.0 0.0 0.0 0.0 0.0 0.0 0.0 0.0 0.0 0.0 0.0 0.0 0.0 0.0 0.0 0.0 0.0 0.0 0.0 0.0 0.0 0.0 0.0 0.0 0.0 0.0 0.0 0.0 0.0 0.0 0.0 0.0 0.0 0.0 0.0 0.0 0.0 0.0 0.0 0.0 0.0 0.0 0.0 0.0 0.0 0.0 0.0 0.0 0.0 0.0 0.0 0.0 0.0 0.0 0.0 0.0 0.0 0.0 0.0 0.0 0.0 0.0 </DataArray>
<DataArray Name="radii" format="ascii" type="Float32">2.5 2.5 2.5 2.5 2.5 2.5 2.5 2.5 2.5 2.5 2.5 2.5 2.5 2.5 2.5 2.5 2.5 2.5 2.5 2.5 2.5 2.5 2.5 2.5 2.5 2.5 2.5 2.5 2.5 2.5 2.5 2.5 2.5 2.5 2.5 2.5 2.5 2.5 2.5 2.5 2.5 2.5 2.5 2.5 2.5 2.5 2.5 2.5 2.5 2.5 2.5 2.5 2.5 2.5 2.5 2.5 2.5 2.5 2.5 2.5 2.5 2.5 2.5 2.5 2.5 2.5 2.5 2.5 2.5 2.5 2.5 2.5 2.5 2.5 2.5 2.5 2.5 2.5 2.5 2.5 </DataArray>
</PointData>
<CellData/>
</Piece>
</UnstructuredGrid>
</VTKFile>
