<?xml version="1.0" ?>
<VTKFile byte_order="LittleEndian" type="UnstructuredGrid" version="0.1">
<UnstructuredGrid>
<Piece NumberOfCells="0" NumberOfPoints="80">
<Points>
<DataArray NumberOfComponents="3" format="ascii" type="Float32">24.400000000000006 2.9833852474285187 3.0 89.0 8.9833852474285187 3.0 123.0 9.9833852474285187 3.0 76.0 16.983385247428519 3.0 9.0 18.983385247428519 3.0 21.0 20.983385247428519 3.0 62.0 21.983385247428519 3.0 103.0 21.983385247428519 3.0 134.0 30.983385247428519 3.0 24.0 31.983385247428519 3.0 179.0 34.983385247428508 3.0 194.0 35.983385247428508 3.0 114.0 36.983385247428508 3.0 68.0 37.983385247428508 3.0 144.0 37.983385247428508 3.0 29.0 39.983385247428508 3.0 53.0 44.983385247428508 3.0 14.0 45.983385247428508 3.0 156.0 48.983385247428508 3.0 195.0 50.983385247428508 3.0 21.0 57.983385247428508 3.0 99.0 57.983385247428508 3.0 92.0 59.983385247428508 3.0 84.0 64.983385247428529 3.0 191.0 66.983385247428529 3.0 76.0 68.983385247428529 3.0 100.0 70.983385247428529 3.0 176.0 72.983385247428529 3.0 143.0 73.983385247428529 3.0 134.0 79.983385247428529 3.0 75.0 87.983385247428529 3.0 84.0 87.983385247428529 3.0 181.0 88.983385247428529 3.0 63.0 89.983385247428529 3.0 184.0 93.983385247428529 3.0 8.0 95.983385247428529 3.0 185.0 99.983385247428529 3.0 72.0 106.98338524742853 3.0 134.0 106.98338524742853 3.0 160.0 109.98338524742853 3.0 4.0 112.98338524742853 3.0 187.0 117.98338524742853 3.0 143.0 119.98338524742853 3.0 185.0 124.98338524742853 3.0 36.0 127.98338524742853 3.0 66.0 128.98338524742849 3.0 74.0 128.98338524742849 3.0 33.0 133.98338524742849 3.0 146.0 133.98338524742849 3.0 21.0 135.98338524742849 3.0 4.0 139.98338524742849 3.0 32.0 139.98338524742849 3.0 197.0 139.98338524742849 3.0 43.0 140.98338524742849 3.0 9.0 146.98338524742849 3.0 142.0 147.98338524742849 3.0 175.0 148.98338524742849 3.0 195.0 148.98338524742849 3.0 19.0 153.98338524742849 3.0 169.0 153.98338524742849 3.0 31.0 154.98338524742849 3.0 161.0 154.98338524742849 3.0 10.0 155.98338524742849 3.0 121.0 156.98338524742849 3.0 40.0 157.98338524742849 3.0 48.0 158.98338524742849 3.0 149.0 159.98338524742849 3.0 96.0 160.98338524742849 3.0 163.0 167.98338524742849 3.0 95.0 173.98338524742849 3.0 195.0 173.98338524742849 3.0 181.0 174.98338524742849 3.0 100.0 176.98338524742849 3.0 151.0 181.98338524742849 3.0 28.0 185.98338524742849 3.0 186.0 187.98338524742849 3.0 193.0 191.98338524742849 3.0 89.0 193.98338524742849 3.0 16.0 194.98338524742849 3.0 186.0 194.98338524742849 3.0 </DataArray>
</Points>
<Cells>
<DataArray Name="connectivity" format="ascii" type="Int32">0</DataArray>
<DataArray Name="offsets" format="ascii" type="Int32">0</DataArray>
<DataArray Name="types" format="ascii" type="UInt8">1</DataArray>
</Cells>
<PointData>
<DataArray Name="Points" NumberOfComponents="3" format="ascii" type="Float32">24.400000000000006 2.9833852474285187 3.0 89.0 8.9833852474285187 3.0 123.0 9.9833852474285187 3.0 76.0 16.983385247428519 3.0 9.0 18.983385247428519 3.0 21.0 20.983385247428519 3.0 62.0 21.983385247428519 3.0 103.0 21.983385247428519 3.0 134.0 30.983385247428519 3.0 24.0 31.983385247428519 3.0 179.0 34.983385247428508 3.0 194.0 35.983385247428508 3.0 114.0 36.983385247428508 3.0 68.0 37.983385247428508 3.0 144.0 37.983385247428508 3.0 29.0 39.983385247428508 3.0 53.0 44.983385247428508 3.0 14.0 45.983385247428508 3.0 156.0 48.983385247428508 3.0 195.0 50.983385247428508 3.0 21.0 57.983385247428508 3.0 99.0 57.983385247428508 3.0 92.0 59.983385247428508 3.0 84.0 64.983385247428529 3.0 191.0 66.983385247428529 3.0 76.0 68.983385247428529 3.0 100.0 70.983385247428529 3.0 176.0 72.983385247428529 3.0 143.0 73.983385247428529 3.0 134.0 79.983385247428529 3.0 75.0 87.983385247428529 3.0 84.0 87.983385247428529 3.0 181.0 88.983385247428529 3.0 63.0 89.983385247428529 3.0 184.0 93.983385247428529 3.0 8.0 95.983385247428529 3.0 185.0 99.983385247428529 3.0 72.0 106.98338524742853 3.0 134.0 106.98338524742853 3.0 160.0 109.98338524742853 3.0 4.0 112.98338524742853 3.0 187.0 117.98338524742853 3.0 143.0 119.98338524742853 3.0 185.0 124.98338524742853 3.0 36.0 127.98338524742853 3.0 66.0 128.98338524742849 3.0 74.0 128.98338524742849 3.0 33.0 133.98338524742849 3.0 146.0 133.98338524742849 3.0 21.0 135.98338524742849 3.0 4.0 139.98338524742849 3.0 32.0 139.98338524742849 3.0 197.0 139.98338524742849 3.0 43.0 140.98338524742849 3.0 9.0 146.98338524742849 3.0 142.0 147.98338524742849 3.0 175.0 148.98338524742849 3.0 195.0 148.98338524742849 3.0 19.0 153.98338524742849 3.0 169.0 153.98338524742849 3.0 31.0 154.98338524742849 3.0 161.0 154.98338524742849 3.0 10.0 155.98338524742849 3.0 121.0 156.98338524742849 3.0 40.0 157.98338524742849 3.0 48.0 158.98338524742849 3.0 149.0 159.98338524742849 3.0 96.0 160.98338524742849 3.0 163.0 167.98338524742849 3.0 95.0 173.98338524742849 3.0 195.0 173.98338524742849 3.0 181.0 174.98338524742849 3.0 100.0 176.98338524742849 3.0 151.0 181.98338524742849 3.0 28.0 185.98338524742849 3.0 186.0 187.98338524742849 3.0 193.0 191.98338524742849 3.0 89.0 193.98338524742849 3.0 16.0 194.98338524742849 3.0 186.0 194.98338524742849 3.0 </DataArray>
<DataArray Name="forces" NumberOfComponents="3" format="ascii" type="Float32">0.0 0.0 0.0 0.0 0.0 0.0 0.0 0.0 0.0 0.0 0.0 0.0 0.0 0.0 0.0 0.0 0.0 0.0 0.0 0.0 0.0 0.0 0.0 0.0 0.0 0.0 0.0 0.0 0.0 0.0 0.0 0.0 0.0 0.0 0.0 0.0 0.0 0.0 0.0 0.0 0.0 0.0 0.0 0.0 0.0 0.0 0.0 0.0 0.0 0.0 0.0 0.0 0.0 0.0 0.0 0.0 0.0 0.0 0.0 0.0 0.0 0.0 0.0 0.0 0.0 0.0 0.0 0.0 0.0 0.0 0.0 0.0 0.0 0.0 0.0 0.0 0.0 0.0 0.0 0.0 0.0 0.0 0.0 0.0 0.0 0.0 0.0 0.0 0.0 0.0 0.0 0.0 0.0 0.0 0.0 0.0 0.0 0.0 0.0 0.0 0.0 0.0 0.0 0.0 0.0 0.0 0.0 0.0 0.0 0.0 0.0 0.0 0.0 0.0 0.0 0.0 0.0 0.0 0.0 0.0 0.0 0.0 0.0 0.0 0.0 0.0 0.0 0.0 0.0 0.0 0.0 0.0 0.0 0.0 0.0 0.0 0.0 0.0 0.0 0.0 0.0 0.0 0.0 0.0 0.0 0.0 0.0 0.0 0.0 0.0 0.0 0.0 0.0 0.0 0.0 0.0 0.0 0.0 0.0 0.0 0.0 0.0 0.0 0.0 0.0 0.0 0.0 0.0 0.0 0.0 0.0 0.0 0.0 0.0 0.0 0.0 0.0 0.0 0.0 0.0 0.0 0.0 0.0 0.0 0.0 0.0 0.0 0.0 0.0 0.0 0.0 0.0 0.0 0.0 0.0 0.0 0.0 0.0 0.0 0.0 0.0 0.0 0.0 0.0 0.0 0.0 0.0 0.0 0.0 0.0 0.0 0.0 0.0 0.0 0.0 0.0 0.0 0.0 0.0 0.0 0.0 0.0 0.0 0.0 0.0 0.0 0.0 0.0 0.0 0.0 0.0 0.0 0.0 0.0 0.0 0.0 0.0 0.0 0.0 0.0 </DataArray>
<DataArray Name="radii" format="ascii" type="Float32">2.9000000000000004 2.9000000000000004 2.9000000000000004 2.9000000000000004 2.9000000000000004 2.9000000000000004 2.9000000000000004 2.9000000000000004 2.9000000000000004 2.9000000000000004 2.9000000000000004 2.9000000000000004 2.9000000000000004 2.9000000000000004 2.9000000000000004 2.9000000000000004 2.9000000000000004 2.9000000000000004 2.9000000000000004 2.9000000000000004 2.9000000000000004 2.9000000000000004 2.9000000000000004 2.9000000000000004 2.9000000000000004 2.9000000000000004 2.9000000000000004 2.9000000000000004 2.9000000000000004 2.9000000000000004 2.9000000000000004 2.9000000000000004 2.9000000000000004 2.9000000000000004 2.9000000000000004 2.9000000000000004 2.9000000000000004 2.9000000000000004 2.9000000000000004 2.9000000000000004 2.9000000000000004 2.9000000000000004 2.9000000000000004 2.9000000000000004 2.9000000000000004 2.9000000000000004 2.9000000000000004 2.9000000000000004 2.9000000000000004 2.9000000000000004 2.9000000000000004 2.9000000000000004 2.9000000000000004 2.9000000000000004 2.9000000000000004 2.9000000000000004 2.9000000000000004 2.9000000000000004 2.9000000000000004 2.9000000000000004 2.9000000000000004 2.9000000000000004 2.9000000000000004 2.9000000000000004 2.9000000000000004 2.9000000000000004 2.9000000000000004 2.9000000000000004 2.9000000000000004 2.9000000000000004 2.9000000000000004 2.9000000000000004 2.9000000000000004 2.9000000000000004 2.9000000000000004 2.9000000000000004 2.9000000000000004 2.9000000000000004 2.9000000000000004 2.9000000000000004 </DataArray>
</PointData>
<CellData/>
</Piece>
</UnstructuredGrid>
</VTKFile>
