<?xml version="1.0" ?>
<VTKFile byte_order="LittleEndian" type="UnstructuredGrid" version="0.1">
<UnstructuredGrid>
<Piece NumberOfCells="0" NumberOfPoints="98">
<Points>
<DataArray NumberOfComponents="3" format="ascii" type="Float32">0 0 0 33.572509552716788 4.5391932275048159 2.5 75.899520322667485 17.926145813606301 3.0 23.209041711817214 17.271414013461488 3.0 63.091635827508405 18.922494418441772 2.5 99.968242311691199 21.068262498313786 3.0 136.743381336769 25.829991922222472 2.5 22.111168230196526 34.378302640275734 2.5 111.21299508143822 39.626656766860386 2.5 69.163441987858434 31.510872275029534 2.5 27.438501684719323 42.333904402548605 2.5 91.946981735180941 60.187353606544079 2.5 70.756188678466117 65.0912657298949 2.5 180.94684057816659 82.456812040838287 3.0 59.988800344656127 90.280869264771098 2.5 76.701238913289146 132.71576794571757 2.5 150.26507682790432 132.79737394292451 2.5 16.201476289248493 132.38425358149931 2.5 32.772178623909973 144.71560323715531 3.0 43.749287125617343 142.02068529961224 2.5 141.77327608940197 151.48222986419984 2.5 177.04662516463938 145.73502920431346 2.5 191.56149844212541 145.28078136838576 2.5 9.3432891414986479 161.68460684805825 2.5 51.785544185471075 158.34951198357692 2.5 90.633440379074528 160.7745773810644 2.5 192.43061957075463 177.73549555927292 2.5 181.41676792570621 171.99811688151189 2.5 25.436463609137434 182.94694009604555 2.5 24.424365583542919 6.8003410555274089 2 12.8844249554488 11.951780311472062 2 64.482350183230253 24.134888246312549 2 60.188812299772223 40.427534168749034 2 21.620520565715481 45.539372064029365 2 101.53862132029755 59.400279104927868 2 134.15299760444532 115.47039483392916 2 40.436378036752082 130.92635584664862 2.5 62.913741760837262 133.93125976966604 2 141.13650299251734 132.24681334491007 2 37.974662714072259 144.26869400860019 2 187.67311036900935 135.30760887452593 2.5 46.576321746251161 146.78558592352715 2 172.57345751527538 141.11397404453547 2 191.62863433872437 151.62350402537413 2 17.658676091529049 162.11589231856058 2 163.92694964717771 146.16311866898917 2 27.465526670788794 164.16272668774221 2.5 126.10887067689826 154.40798734115808 2 37.965741455443869 150.30097205206982 2 49.439791985674781 151.56343672219904 2 102.02654950427321 161.80533125110401 2 196.684787055442 164.88802230683942 2 24.744556757137286 189.04746849405996 2 102.00103517507684 16.642063932108318 2 110.1041271095697 32.984398754864522 2 16.189318873377729 60.324168906799585 2 177.54833451858045 77.409452788808196 2 138.35754304169311 71.090817188549607 2.5 132.88282227232574 73.003682633621153 2 66.221011393832697 103.13450856305258 2 70.559461461390057 134.43821044230813 2 11.274172140689524 131.04383061706358 2 138.4094373698579 146.99851919266001 2 176.85532761629989 153.81367543321483 2 174.32080497672604 158.70597223085107 2 87.885158410365449 170.48529901411823 2 180.82643096013624 177.5602307812791 2.5 92.521622196243385 12.139185938160812 2 19.036603686318237 10.995221339542326 2.5 13.574355645193677 52.328386935697537 2 97.123043755921714 63.183327424536628 2.5 101.99087566626963 67.763481521305351 2 181.60480703914254 69.252528732376419 2 67.690737655632617 97.100348651461559 2 139.36767204910726 121.26982701973581 2.5 41.225722518117379 124.49900692347663 2 80.441112250634475 122.32918406631316 2 134.5954520759289 141.24331506394702 2 194.57226991876425 156.72859519723696 2 156.07285810602286 143.80488630143162 2 98.86067513979971 155.53220001352005 2 196.40838401643052 170.57535563706355 2 186.55780381741945 178.59540655921137 2 186.89396249369787 69.043340741204915 2 12.870443052153911 164.46972830356387 2 36.098095960919274 167.38858905157011 2.5 18.313784459936503 192.42049473904257 2 79.803708725554799 107.35991039453678 2 165.52706703082194 141.02434541285743 2 87.802398605739398 14.097555090304031 2 7.2156991223839189 16.131438407363056 2 28.255274191895577 18.249335609064548 2 39.217458630928569 38.763732485468012 2 175.54240284268906 164.14989628712073 2.5 22.974187849299899 161.50632282998964 2 68.169640075738201 16.890885118958593 2 51.046599692957138 128.52116847428141 2 140.77388613051784 126.62637754513254 2 </DataArray>
</Points>
<Cells>
<DataArray Name="connectivity" format="ascii" type="Int32">0</DataArray>
<DataArray Name="offsets" format="ascii" type="Int32">0</DataArray>
<DataArray Name="types" format="ascii" type="UInt8">1</DataArray>
</Cells>
<PointData>
<DataArray Name="Points" NumberOfComponents="3" format="ascii" type="Float32">0 0 0 33.572509552716788 4.5391932275048159 2.5 75.899520322667485 17.926145813606301 3.0 23.209041711817214 17.271414013461488 3.0 63.091635827508405 18.922494418441772 2.5 99.968242311691199 21.068262498313786 3.0 136.743381336769 25.829991922222472 2.5 22.111168230196526 34.378302640275734 2.5 111.21299508143822 39.626656766860386 2.5 69.163441987858434 31.510872275029534 2.5 27.438501684719323 42.333904402548605 2.5 91.946981735180941 60.187353606544079 2.5 70.756188678466117 65.0912657298949 2.5 180.94684057816659 82.456812040838287 3.0 59.988800344656127 90.280869264771098 2.5 76.701238913289146 132.71576794571757 2.5 150.26507682790432 132.79737394292451 2.5 16.201476289248493 132.38425358149931 2.5 32.772178623909973 144.71560323715531 3.0 43.749287125617343 142.02068529961224 2.5 141.77327608940197 151.48222986419984 2.5 177.04662516463938 145.73502920431346 2.5 191.56149844212541 145.28078136838576 2.5 9.3432891414986479 161.68460684805825 2.5 51.785544185471075 158.34951198357692 2.5 90.633440379074528 160.7745773810644 2.5 192.43061957075463 177.73549555927292 2.5 181.41676792570621 171.99811688151189 2.5 25.436463609137434 182.94694009604555 2.5 24.424365583542919 6.8003410555274089 2 12.8844249554488 11.951780311472062 2 64.482350183230253 24.134888246312549 2 60.188812299772223 40.427534168749034 2 21.620520565715481 45.539372064029365 2 101.53862132029755 59.400279104927868 2 134.15299760444532 115.47039483392916 2 40.436378036752082 130.92635584664862 2.5 62.913741760837262 133.93125976966604 2 141.13650299251734 132.24681334491007 2 37.974662714072259 144.26869400860019 2 187.67311036900935 135.30760887452593 2.5 46.576321746251161 146.78558592352715 2 172.57345751527538 141.11397404453547 2 191.62863433872437 151.62350402537413 2 17.658676091529049 162.11589231856058 2 163.92694964717771 146.16311866898917 2 27.465526670788794 164.16272668774221 2.5 126.10887067689826 154.40798734115808 2 37.965741455443869 150.30097205206982 2 49.439791985674781 151.56343672219904 2 102.02654950427321 161.80533125110401 2 196.684787055442 164.88802230683942 2 24.744556757137286 189.04746849405996 2 102.00103517507684 16.642063932108318 2 110.1041271095697 32.984398754864522 2 16.189318873377729 60.324168906799585 2 177.54833451858045 77.409452788808196 2 138.35754304169311 71.090817188549607 2.5 132.88282227232574 73.003682633621153 2 66.221011393832697 103.13450856305258 2 70.559461461390057 134.43821044230813 2 11.274172140689524 131.04383061706358 2 138.4094373698579 146.99851919266001 2 176.85532761629989 153.81367543321483 2 174.32080497672604 158.70597223085107 2 87.885158410365449 170.48529901411823 2 180.82643096013624 177.5602307812791 2.5 92.521622196243385 12.139185938160812 2 19.036603686318237 10.995221339542326 2.5 13.574355645193677 52.328386935697537 2 97.123043755921714 63.183327424536628 2.5 101.99087566626963 67.763481521305351 2 181.60480703914254 69.252528732376419 2 67.690737655632617 97.100348651461559 2 139.36767204910726 121.26982701973581 2.5 41.225722518117379 124.49900692347663 2 80.441112250634475 122.32918406631316 2 134.5954520759289 141.24331506394702 2 194.57226991876425 156.72859519723696 2 156.07285810602286 143.80488630143162 2 98.86067513979971 155.53220001352005 2 196.40838401643052 170.57535563706355 2 186.55780381741945 178.59540655921137 2 186.89396249369787 69.043340741204915 2 12.870443052153911 164.46972830356387 2 36.098095960919274 167.38858905157011 2.5 18.313784459936503 192.42049473904257 2 79.803708725554799 107.35991039453678 2 165.52706703082194 141.02434541285743 2 87.802398605739398 14.097555090304031 2 7.2156991223839189 16.131438407363056 2 28.255274191895577 18.249335609064548 2 39.217458630928569 38.763732485468012 2 175.54240284268906 164.14989628712073 2.5 22.974187849299899 161.50632282998964 2 68.169640075738201 16.890885118958593 2 51.046599692957138 128.52116847428141 2 140.77388613051784 126.62637754513254 2 </DataArray>
<DataArray Name="forces" NumberOfComponents="3" format="ascii" type="Float32">0 0 0 0.0026519245525786911 0.038914922190161266 0.0 -0.12102114106984135 -0.014378986439464947 0.0 0.074469742341369494 0.22010036962409585 0.0 -0.064152373427746351 0.11294984320469534 0.0 0.14885417756451369 0.12795107516063337 0.0 0.069222461824519799 0.0018916627069548927 0.0 -0.019945009960103208 0.037089690156106629 0.0 -0.015627732657693863 -0.025809296602606127 0.0 -0.013014753594906329 -0.029341683114487122 0.0 -0.12190688496449975 0.090239023610619612 0.0 0.20501412948747047 -0.03698102846525253 0.0 -0.035617635617518073 0.11355762956711604 0.0 0.026268182842390485 0.023239099009796677 0.0 0.019504260561570078 -0.0051379648809073419 0.0 -0.020785723400653617 -0.14331100596115132 0.0 0.020000069396829988 0.0061164756998844695 0.0 0.0077089763205694106 -0.13251755764213177 0.0 0.018507095237393856 -0.086919182912052695 0.0 0.31353814617051612 -0.098124499695999845 0.0 -0.039353794781569036 -0.0074528896255200636 0.0 -0.25874357388609198 -0.16654618001080138 0.0 0.06577868838748327 -0.13867444174150276 0.0 -0.047503978889768705 0.37593745698265024 0.0 -0.21053690231542443 0.075354312189937822 0.0 0.0076772430875167164 -0.13387662117750662 0.0 -0.040479902180899252 -0.096176571823201495 0.0 -0.30419945499985762 -0.21650048791083851 0.0 0.038198776181346011 -0.16575024565974561 0.0 0.10722742160253085 0.24728462220738923 0.0 0.07204553126524757 0.012720233074189014 0.0 0.0092971896803896656 0.1196322564865997 0.0 0.0 0.0 0.0 0.04857163062246464 0.024955113824574618 0.0 -0.026984341977063925 -0.059507007253045738 0.0 0.25454273170012759 -0.1191852329318786 0.0 0.14230470060603392 -0.17211966554552055 0.0 0.0 0.0 0.0 0.12961269017504226 0.11621013659507579 0.0 0.26815890353409233 0.33650854912372269 0.0 -0.15546649622914474 -0.089963620980550385 0.0 0.25494466037478175 0.080988965636869081 0.0 -0.018050080866682302 0.0024351394261526 0.0 -0.03081049994901236 -0.14312083101523812 0.0 0.055989259067594582 0.28548179198695217 0.0 0.0039747847854608165 -0.24368866963339966 0.0 0.11755355032118348 -0.016081541326974202 0.0 0.17788748275319391 -0.046822123667894899 0.0 0.15544120146685697 -0.26891985232934046 0.0 0.019760597741768193 0.1802199570615291 0.0 -0.15155517809731817 0.024322281963987342 0.0 0.41025275277336226 0.35194625394980361 0.0 -0.23821073160181716 -0.23598981134283825 0.0 -0.036182592732992153 0.012430600054076479 0.0 0.0023027742555116436 0.045837633340140134 0.0 -0.038710504903581203 -0.045318663639523631 0.0 -0.050990251903939722 0.054130141677208241 0.0 -0.015370513598236579 0.14124051061401965 0.0 0.16839145803125055 -0.012766844285675483 0.0 0.00044528602249666038 -0.0062922888506786734 0.0 0.074581503112899794 -0.16242134270790548 0.0 0.060473326827121546 -0.35770220279258413 0.0 -0.095990945594256152 -0.044601686748924035 0.0 -0.0083575206618510256 -0.060213711696566585 0.0 0.0067956305537962836 0.009086256755862554 0.0 -0.029587441867199624 0.0094688353648356254 0.0 -0.1894157465513589 -0.13251932501452185 0.0 0.36976663289312323 -0.0028418866931395337 0.0 0.089020822275297798 0.076154812493583857 0.0 0.0 0.0 0.0 0.13145186567697997 0.21846019546959403 0.0 0.05728437956119771 -0.032180103797508512 0.0 -0.072581126915170643 -0.024837925657304853 0.0 0.010093685722512735 0.37150375719362549 0.0 0.10077970520484883 0.032446739112544809 0.0 0.23754291537948446 0.025058153106039566 0.0 0.0016829844436075866 0.020746455194930957 0.0 -0.005949243048754535 0.031903723428672141 0.0 -0.41532261494622658 0.1520630675991011 0.0 0.12433286385743468 -0.014855934805804799 0.0 -0.007232813722177248 0.0017111380181397112 0.0 0.386535108882953 -0.57482921540086584 0.0 -0.121287170263893 -0.0074159373636320594 0.0 -0.093232001450471474 -0.067616702779081578 0.0 0.18897736601773168 0.23972398312101817 0.0 -5.4710113773975833e-05 0.080064724190279352 0.0 -0.035045949877828636 -0.14358806588647402 0.0 -0.0081389568187162208 -0.011640507595904822 0.0 0.10450518475303043 -0.30544179451585729 0.0 -0.39924498014840237 0.16637008460731462 0.0 0.18532032452681224 0.46178463985226803 0.0 0.1940197558548096 0.086139472192666933 0.0 0.10704521550477553 0.078112548027971296 0.0 -0.047728665373312426 0.06787151959464463 0.0 0.0052530731391718238 0.088844046909098737 0.0 -0.048938445629988947 0.058182678476632901 0.0 0.016924812893671964 0.017832458674918353 0.0 -0.017231286150901956 0.10664041979025499 0.0 </DataArray>
<DataArray Name="radii" format="ascii" type="Float32">0 2.75 2.85 2.85 2.85 2.75 2.85 2.85 2.75 2.75 2.85 2.95 2.85 3.1500000000000004 2.85 2.75 2.85 2.95 3.1500000000000004 3.2500000000000004 2.85 2.85 3.1500000000000004 2.85 2.95 2.75 3.2500000000000004 2.75 3.1500000000000004 3.0500000000000003 2.95 2.85 2.85 2.85 2.85 2.75 3.2500000000000004 2.75 2.85 2.75 2.85 3.2500000000000004 2.85 3.1500000000000004 2.85 2.85 2.75 2.85 3.2500000000000004 2.75 2.75 2.75 3.1500000000000004 2.75 2.85 2.85 3.1500000000000004 2.75 2.75 2.85 2.75 2.85 2.85 3.1500000000000004 2.85 2.75 3.2500000000000004 2.75 2.75 2.75 3.2500000000000004 2.85 2.85 2.85 2.85 2.75 2.75 2.85 2.75 2.85 2.75 2.75 3.2500000000000004 2.85 2.75 2.75 2.75 2.75 2.85 2.75 2.75 2.75 2.75 2.75 2.75 2.85 2.75 2.85 </DataArray>
</PointData>
<CellData/>
</Piece>
</UnstructuredGrid>
</VTKFile>
