<?xml version="1.0" ?>
<VTKFile byte_order="LittleEndian" type="UnstructuredGrid" version="0.1">
<UnstructuredGrid>
<Piece NumberOfCells="0" NumberOfPoints="22">
<Points>
<DataArray NumberOfComponents="3" format="ascii" type="Float32">0 0 0 91.766804894381536 60.549652569789416 2.5 180.68271193285545 82.953227473492262 3.0 16.355849341486017 132.8496976542059 2.5 32.235862022218065 145.42784111655658 3.0 41.944801327242452 142.52669272206006 2.5 191.28715409031648 146.89620150002261 2.5 52.70959877136503 158.05969663660443 2.5 192.77364145425008 178.80566873597726 2.5 25.601778924682989 183.99150818348159 2.5 23.86679006529663 5.6917563197148313 2 11.803235254192359 11.927364202422007 2 40.033210250958675 131.48888547258497 2.5 45.607340739233152 146.83548078597246 2 192.5977175566826 152.38570016889057 2 37.483050773326681 151.16665510310281 2 25.061524216402592 190.01612295826186 2 177.90622783910445 77.920031790803236 2 176.47452854659889 154.68315186876765 2 181.43427668325285 178.20626940456469 2.5 96.829909045745424 62.142639453481173 2.5 187.12458539934107 179.80153627362489 2 </DataArray>
</Points>
<Cells>
<DataArray Name="connectivity" format="ascii" type="Int32">0</DataArray>
<DataArray Name="offsets" format="ascii" type="Int32">0</DataArray>
<DataArray Name="types" format="ascii" type="UInt8">1</DataArray>
</Cells>
<PointData>
<DataArray Name="Points" NumberOfComponents="3" format="ascii" type="Float32">0 0 0 91.766804894381536 60.549652569789416 2.5 180.68271193285545 82.953227473492262 3.0 16.355849341486017 132.8496976542059 2.5 32.235862022218065 145.42784111655658 3.0 41.944801327242452 142.52669272206006 2.5 191.28715409031648 146.89620150002261 2.5 52.70959877136503 158.05969663660443 2.5 192.77364145425008 178.80566873597726 2.5 25.601778924682989 183.99150818348159 2.5 23.86679006529663 5.6917563197148313 2 11.803235254192359 11.927364202422007 2 40.033210250958675 131.48888547258497 2.5 45.607340739233152 146.83548078597246 2 192.5977175566826 152.38570016889057 2 37.483050773326681 151.16665510310281 2 25.061524216402592 190.01612295826186 2 177.90622783910445 77.920031790803236 2 176.47452854659889 154.68315186876765 2 181.43427668325285 178.20626940456469 2.5 96.829909045745424 62.142639453481173 2.5 187.12458539934107 179.80153627362489 2 </DataArray>
<DataArray Name="forces" NumberOfComponents="3" format="ascii" type="Float32">0 0 0 0.049361601146354073 0.019575248069125251 0.0 0.097561612078270091 -0.098600822401328309 0.0 -0.21460345030135786 0.026650976107417013 0.0 0.26798597144832353 0.11001177967865183 0.0 0.18384285874444087 -0.045723624926932299 0.0 -0.073421967331759125 -0.059880015759812499 0.0 0.0 0.0 0.0 0.0026848591063824978 -0.14825178291767538 0.0 0.057337371247802582 -0.05911624801522801 0.0 0.13119758067519705 0.31666813913972069 0.0 0.23088038348017031 0.06427468556473992 0.0 -0.060417062615398184 -0.0045129374840089057 0.0 0.084444535274045052 -0.0065635211657320003 0.0 -0.15239916004472862 0.029700960130714493 0.0 0.16781226818674844 0.080880121663538862 0.0 0.087949965966149846 0.015220347958194408 0.0 -0.03264737269292653 -0.059589555460434512 0.0 0.13134705608378039 -0.12758652698092504 0.0 -0.074167404631883399 -0.0055174602660883962 0.0 0.096020019352900665 0.043479385034839689 0.0 -0.056584790275136229 -0.16877645571082761 0.0 </DataArray>
<DataArray Name="radii" format="ascii" type="Float32">0 2.75 2.95 2.75 2.95 3.0500000000000003 2.95 2.75 3.0500000000000003 2.95 2.85 2.75 3.0500000000000003 3.0500000000000003 2.95 3.0500000000000003 2.95 2.95 2.95 3.0500000000000003 3.0500000000000003 3.0500000000000003 </DataArray>
</PointData>
<CellData/>
</Piece>
</UnstructuredGrid>
</VTKFile>
