<?xml version="1.0" ?>
<VTKFile byte_order="LittleEndian" type="UnstructuredGrid" version="0.1">
<UnstructuredGrid>
<Piece NumberOfCells="0" NumberOfPoints="160">
<Points>
<DataArray NumberOfComponents="3" format="ascii" type="Float32">28.146324202336022 3.8747277027302305 3.0 87.643337980757948 9.6167382317938142 3.0 123.82271043175993 8.4996363161339072 3.0 77.143113480548408 17.89320060724053 3.0 8.2848003515253303 20.227017941043883 3.0 22.473891700853056 20.301606049819011 3.0 61.116456206089403 20.467442462273965 3.0 101.75011743098661 21.437495351006124 3.0 133.53646219239528 29.336390913432535 3.0 22.875730466303267 31.905912240686689 3.0 177.59314036105684 34.143451393357594 3.0 194.08242354253278 37.397611216155376 3.0 112.52328322447227 36.309507795286244 3.0 67.172056783350556 36.502879216193961 3.0 145.24047137832309 36.875945294634676 3.0 29.536929963564472 41.304905299216934 3.0 51.412667451273656 45.499490968555413 3.0 12.828176937541976 44.793023527348474 3.0 154.74115135111376 47.900249342207907 3.0 196.54366648730337 50.564973326627104 3.0 19.553225586224542 57.231686535383112 3.0 102.09556841159748 57.154781449786455 3.0 91.284589184842758 60.111587226542518 3.0 82.047409773858405 65.997589095390424 3.0 189.44226790961656 67.001014606147194 3.0 74.288681246319953 68.443234781040687 3.0 98.450708202285213 71.433758926748354 3.0 175.7675993023181 74.382448721026677 3.0 141.55234490647075 74.432221498061338 3.0 133.96452776330199 78.266652147794147 3.0 74.318570740293879 86.422197778729526 3.0 82.453017410039706 87.584826654145559 3.0 182.38547205970227 86.810632044196694 3.0 61.771500055837066 89.086424877061489 3.0 183.08241707777341 92.479464980408821 3.0 8.9883296446583412 97.048728377850921 3.0 183.78964366106911 100.78044599236401 3.0 71.686492865884873 105.29793709248854 3.0 133.85680876204651 105.27280759655257 3.0 161.36551697597267 110.60120593103214 3.0 3.9162035782783335 114.39753828828401 3.0 187.1254630967363 115.7095674704 3.0 142.39237352988579 118.38887473775279 3.0 185.52108056845049 126.45184524254364 3.0 35.189500212106928 125.78941388027603 3.0 67.566039178358693 128.78532702688901 3.0 74.306683770646728 130.36947195936608 3.0 31.913170098540924 131.3376109759518 3.0 147.1960194624024 134.84508796316405 3.0 20.566295812582009 134.32747469109916 3.0 6.8978919840294468 137.89169678625726 3.0 31.272752476021711 142.24419136936615 3.0 197.139528369462 139.72722269492786 3.0 42.31724593832233 139.22101586936847 3.0 8.1750601268455707 147.36925528325381 3.0 142.28708524684993 149.3732542636053 3.0 175.97603771361941 150.05861889120081 3.0 195.44153175617572 147.03735627541465 3.0 20.234975391462122 152.7870504679521 3.0 170.81688473399046 154.31476695557279 3.0 29.472580908546387 153.4711477919532 3.0 161.74414227463575 156.25709453760044 3.0 10.632916661083692 158.27512668440869 3.0 119.44501003657854 157.02474235269881 3.0 41.504797088013817 159.2930380126727 3.0 49.036406974982889 160.02134358746443 3.0 147.95126670310944 160.99702226284339 3.0 94.533235218291196 160.28223984807187 3.0 164.13248776531321 166.75032254207179 3.0 93.954886227507515 172.17109960916991 3.0 193.67461495359063 174.93640170933139 3.0 180.84302692987342 173.23553754959056 3.0 101.13131124367445 175.2362671361708 3.0 149.49462203466126 181.39874604334099 3.0 28.589530809185661 183.76890526513998 3.0 184.73577599090626 188.9805175378782 3.0 191.91260708994562 192.0597031704051 3.0 89.834795832077759 195.15886211275784 3.0 14.957581783063302 196.4355534132186 3.0 186.74327590081762 194.5688566694422 3.0 22.605661842625501 2.8604716305380005 2 92.521412194049674 6.7987505217894704 2 120.86453626217831 13.293994286346109 2 73.075705879438701 13.944191970856803 2 10.856403973574624 15.214681402544073 2 17.1743012375387 22.212366025657076 2 63.960279444818696 25.330237863919926 2 107.15505625986842 23.027158378346339 2 135.20317932171085 34.717721304233962 2 28.025415828370733 29.623380209755712 2 182.65170736530129 36.622879276496448 2 193.78605779211378 31.771881920668832 2 117.83303165176417 38.191855904162061 2 70.149046186697944 41.285576870915058 2 140.78017739419201 40.31722998777493 2 27.606320738526378 36.012513516259531 2 56.110784054064546 42.075723103683053 2 17.041635988095095 48.532465409959997 2 159.26752346551839 51.254145322416157 2 190.99319070274197 51.52875822436873 2 24.755311927693167 59.393852222841581 2 96.709091704147653 58.723620985903686 2 92.13805386220848 54.54637539710739 2 86.051638857099988 62.079133409822667 2 195.04331860134434 66.396950112228751 2 79.347778745321392 70.919313972849594 2 103.99385276503187 72.438811368118209 2 176.60322957311064 68.811238366476033 2 146.75759785917802 72.277690351280327 2 134.09207331309278 83.898738341811921 2 76.768748052556248 91.494997193509505 2 88.015416720600911 88.47722604566566 2 177.54125986704176 91.523537665660314 2 67.224953633153177 90.685280926231727 2 187.28836579434389 96.247561237701845 2 5.4346476771088987 92.677457711599388 2 189.69018044158139 101.43081644978773 2 72.813753041904533 110.81753374982478 2 134.37167353715128 110.88276098561683 2 156.4556034869625 107.83906685152276 2 4.2175057140858581 108.77207121549129 2 187.80266195714353 121.30175654818206 2 144.57718225389914 123.58149195873033 2 182.05870087850079 121.93932514149277 2 37.529161330440509 130.91357785708499 2 61.935119152143066 128.95679837283623 2 73.203957983377521 124.84492142541224 2 30.220219449975353 136.71021141085288 2 142.89555876151272 131.20603581676377 2 22.125741852076967 139.74086464694201 2 2.8604716305380005 141.82521817304988 2 35.71953535483334 138.61712774658079 2 191.51377439828966 140.01141182667646 2 44.393705999782668 144.4584125575409 2 10.487512915663512 142.23280238186987 2 141.25482878222408 143.83510390853587 2 172.4665531592666 145.65178545585565 2 196.06707634478232 152.65231384088514 2 15.965822962924081 156.46286682426643 2 165.61168210010945 152.16181121130495 2 32.758176476345881 158.04659078576938 2 157.0781240215521 153.10149011500079 2 8.7213158343105768 152.97666522431197 2 125.03620101480871 156.33536131939817 2 37.690668556969811 155.14778989285981 2 45.67237896832173 155.50228126063382 2 151.7221387254871 156.81166840026896 2 99.80719981458445 162.26263379907314 2 160.06046445627337 170.6433019839329 2 95.947052306735714 177.44063351804985 2 197.139528369462 170.57597401304625 2 180.20704332012846 178.84576858577563 2 101.23586588691418 180.86856054002848 2 154.90742590904046 182.96022514394483 2 28.496016064742619 189.19837480272022 2 188.99065686249347 185.27679472918359 2 197.139528369462 190.14523217144398 2 86.833166860333606 190.39158969762323 2 17.471324211830744 191.39514870752245 2 181.60243314379844 196.70778304786259 2 </DataArray>
</Points>
<Cells>
<DataArray Name="connectivity" format="ascii" type="Int32">0</DataArray>
<DataArray Name="offsets" format="ascii" type="Int32">0</DataArray>
<DataArray Name="types" format="ascii" type="UInt8">1</DataArray>
</Cells>
<PointData>
<DataArray Name="Points" NumberOfComponents="3" format="ascii" type="Float32">28.146324202336022 3.8747277027302305 3.0 87.643337980757948 9.6167382317938142 3.0 123.82271043175993 8.4996363161339072 3.0 77.143113480548408 17.89320060724053 3.0 8.2848003515253303 20.227017941043883 3.0 22.473891700853056 20.301606049819011 3.0 61.116456206089403 20.467442462273965 3.0 101.75011743098661 21.437495351006124 3.0 133.53646219239528 29.336390913432535 3.0 22.875730466303267 31.905912240686689 3.0 177.59314036105684 34.143451393357594 3.0 194.08242354253278 37.397611216155376 3.0 112.52328322447227 36.309507795286244 3.0 67.172056783350556 36.502879216193961 3.0 145.24047137832309 36.875945294634676 3.0 29.536929963564472 41.304905299216934 3.0 51.412667451273656 45.499490968555413 3.0 12.828176937541976 44.793023527348474 3.0 154.74115135111376 47.900249342207907 3.0 196.54366648730337 50.564973326627104 3.0 19.553225586224542 57.231686535383112 3.0 102.09556841159748 57.154781449786455 3.0 91.284589184842758 60.111587226542518 3.0 82.047409773858405 65.997589095390424 3.0 189.44226790961656 67.001014606147194 3.0 74.288681246319953 68.443234781040687 3.0 98.450708202285213 71.433758926748354 3.0 175.7675993023181 74.382448721026677 3.0 141.55234490647075 74.432221498061338 3.0 133.96452776330199 78.266652147794147 3.0 74.318570740293879 86.422197778729526 3.0 82.453017410039706 87.584826654145559 3.0 182.38547205970227 86.810632044196694 3.0 61.771500055837066 89.086424877061489 3.0 183.08241707777341 92.479464980408821 3.0 8.9883296446583412 97.048728377850921 3.0 183.78964366106911 100.78044599236401 3.0 71.686492865884873 105.29793709248854 3.0 133.85680876204651 105.27280759655257 3.0 161.36551697597267 110.60120593103214 3.0 3.9162035782783335 114.39753828828401 3.0 187.1254630967363 115.7095674704 3.0 142.39237352988579 118.38887473775279 3.0 185.52108056845049 126.45184524254364 3.0 35.189500212106928 125.78941388027603 3.0 67.566039178358693 128.78532702688901 3.0 74.306683770646728 130.36947195936608 3.0 31.913170098540924 131.3376109759518 3.0 147.1960194624024 134.84508796316405 3.0 20.566295812582009 134.32747469109916 3.0 6.8978919840294468 137.89169678625726 3.0 31.272752476021711 142.24419136936615 3.0 197.139528369462 139.72722269492786 3.0 42.31724593832233 139.22101586936847 3.0 8.1750601268455707 147.36925528325381 3.0 142.28708524684993 149.3732542636053 3.0 175.97603771361941 150.05861889120081 3.0 195.44153175617572 147.03735627541465 3.0 20.234975391462122 152.7870504679521 3.0 170.81688473399046 154.31476695557279 3.0 29.472580908546387 153.4711477919532 3.0 161.74414227463575 156.25709453760044 3.0 10.632916661083692 158.27512668440869 3.0 119.44501003657854 157.02474235269881 3.0 41.504797088013817 159.2930380126727 3.0 49.036406974982889 160.02134358746443 3.0 147.95126670310944 160.99702226284339 3.0 94.533235218291196 160.28223984807187 3.0 164.13248776531321 166.75032254207179 3.0 93.954886227507515 172.17109960916991 3.0 193.67461495359063 174.93640170933139 3.0 180.84302692987342 173.23553754959056 3.0 101.13131124367445 175.2362671361708 3.0 149.49462203466126 181.39874604334099 3.0 28.589530809185661 183.76890526513998 3.0 184.73577599090626 188.9805175378782 3.0 191.91260708994562 192.0597031704051 3.0 89.834795832077759 195.15886211275784 3.0 14.957581783063302 196.4355534132186 3.0 186.74327590081762 194.5688566694422 3.0 22.605661842625501 2.8604716305380005 2 92.521412194049674 6.7987505217894704 2 120.86453626217831 13.293994286346109 2 73.075705879438701 13.944191970856803 2 10.856403973574624 15.214681402544073 2 17.1743012375387 22.212366025657076 2 63.960279444818696 25.330237863919926 2 107.15505625986842 23.027158378346339 2 135.20317932171085 34.717721304233962 2 28.025415828370733 29.623380209755712 2 182.65170736530129 36.622879276496448 2 193.78605779211378 31.771881920668832 2 117.83303165176417 38.191855904162061 2 70.149046186697944 41.285576870915058 2 140.78017739419201 40.31722998777493 2 27.606320738526378 36.012513516259531 2 56.110784054064546 42.075723103683053 2 17.041635988095095 48.532465409959997 2 159.26752346551839 51.254145322416157 2 190.99319070274197 51.52875822436873 2 24.755311927693167 59.393852222841581 2 96.709091704147653 58.723620985903686 2 92.13805386220848 54.54637539710739 2 86.051638857099988 62.079133409822667 2 195.04331860134434 66.396950112228751 2 79.347778745321392 70.919313972849594 2 103.99385276503187 72.438811368118209 2 176.60322957311064 68.811238366476033 2 146.75759785917802 72.277690351280327 2 134.09207331309278 83.898738341811921 2 76.768748052556248 91.494997193509505 2 88.015416720600911 88.47722604566566 2 177.54125986704176 91.523537665660314 2 67.224953633153177 90.685280926231727 2 187.28836579434389 96.247561237701845 2 5.4346476771088987 92.677457711599388 2 189.69018044158139 101.43081644978773 2 72.813753041904533 110.81753374982478 2 134.37167353715128 110.88276098561683 2 156.4556034869625 107.83906685152276 2 4.2175057140858581 108.77207121549129 2 187.80266195714353 121.30175654818206 2 144.57718225389914 123.58149195873033 2 182.05870087850079 121.93932514149277 2 37.529161330440509 130.91357785708499 2 61.935119152143066 128.95679837283623 2 73.203957983377521 124.84492142541224 2 30.220219449975353 136.71021141085288 2 142.89555876151272 131.20603581676377 2 22.125741852076967 139.74086464694201 2 2.8604716305380005 141.82521817304988 2 35.71953535483334 138.61712774658079 2 191.51377439828966 140.01141182667646 2 44.393705999782668 144.4584125575409 2 10.487512915663512 142.23280238186987 2 141.25482878222408 143.83510390853587 2 172.4665531592666 145.65178545585565 2 196.06707634478232 152.65231384088514 2 15.965822962924081 156.46286682426643 2 165.61168210010945 152.16181121130495 2 32.758176476345881 158.04659078576938 2 157.0781240215521 153.10149011500079 2 8.7213158343105768 152.97666522431197 2 125.03620101480871 156.33536131939817 2 37.690668556969811 155.14778989285981 2 45.67237896832173 155.50228126063382 2 151.7221387254871 156.81166840026896 2 99.80719981458445 162.26263379907314 2 160.06046445627337 170.6433019839329 2 95.947052306735714 177.44063351804985 2 197.139528369462 170.57597401304625 2 180.20704332012846 178.84576858577563 2 101.23586588691418 180.86856054002848 2 154.90742590904046 182.96022514394483 2 28.496016064742619 189.19837480272022 2 188.99065686249347 185.27679472918359 2 197.139528369462 190.14523217144398 2 86.833166860333606 190.39158969762323 2 17.471324211830744 191.39514870752245 2 181.60243314379844 196.70778304786259 2 </DataArray>
<DataArray Name="forces" NumberOfComponents="3" format="ascii" type="Float32">0.0001671949254982073 3.0696502516449051e-05 0.0 0.0 0.0 0.0 0.0 0.0 0.0 6.2291096015620792e-05 -1.6835579813661161e-05 0.0 0.0 0.0 0.0 0.0 0.0 0.0 -9.2873101064733991e-05 -0.00015880835441656619 0.0 0.00013946552087644275 -6.9913942265792254e-05 0.0 0.0 0.0 0.0 -6.841534919068699e-07 3.0324226618842637e-07 0.0 0.0 0.0 0.0 0.0 0.0 0.0 0.0 0.0 0.0 0.0 0.0 0.0 0.0 0.0 0.0 0.0 0.0 0.0 8.1272041479485147e-05 0.00052693589828933817 0.0 0.0 0.0 0.0 0.0 0.0 0.0 0.0 0.0 0.0 0.0 0.0 0.0 0.041725582724916971 -0.012121334483293294 0.0 0.0045747582026016975 -0.003851055071582437 0.0 -0.030373445435558703 0.0136303011752993 0.0 0.0 0.0 0.0 -0.0013589470585943935 -0.00064543778264738972 0.0 0.0 0.0 0.0 0.0 0.0 0.0 0.0 0.0 0.0 0.0 0.0 0.0 0.0 0.0 0.0 0.0 0.0 0.0 0.0023805750009438104 -0.0031735472243830999 0.0 0.0 0.0 0.0 -0.0060270221393949235 -0.0055591372995610839 0.0 0.0 0.0 0.0 0.0 0.0 0.0 0.0 0.0 0.0 0.0 0.0 0.0 0.0 0.0 0.0 0.0 0.0 0.0 -8.9279343974164131e-06 -7.3725311933283243e-05 0.0 0.0 0.0 0.0 0.0 0.0 0.0 0.0 0.0 0.0 0.0 0.0 0.0 0.0 0.0 0.0 -0.0002067631913421948 -0.00034965757271422654 0.0 0.0 0.0 0.0 0.0 0.0 0.0 -0.00082537975724612529 -0.0010003340149045612 0.0 7.1240208082208056e-05 0.00037467942744383347 0.0 0.0 0.0 0.0 -0.00048398455189064161 -0.001220252468203546 0.0 -0.0021418883350827964 -0.0019473184329794088 0.0 0.0 0.0 0.0 0.0 0.0 0.0 0.0 0.0 0.0 0.00022951635277328796 -0.00019761767181842473 0.0 0.0 0.0 0.0 0.0 0.0 0.0 0.0 0.0 0.0 0.0012918280341809214 0.0035852541804826071 0.0 0.0 0.0 0.0 0.0 0.0 0.0 0.0 0.0 0.0 0.0 0.0 0.0 0.0 0.0 0.0 0.0 0.0 0.0 0.0 0.0 0.0 0.013002142866796643 -0.03739134866798683 0.0 0.0 0.0 0.0 0.0 0.0 0.0 0.0 0.0 0.0 0.0 0.0 0.0 -0.014275541248412904 0.012501038708978377 0.0 0.0053908840266200589 -0.0096937051612127553 0.0 0.0 0.0 0.0 -5.9061398777284715e-05 0.00011837849522675808 0.0 -0.042267967057698135 0.021822753545933701 0.0 -0.0001671949254982073 -3.0696502516449051e-05 0.0 0.0 0.0 0.0 0.0 0.0 0.0 3.1662565055516269e-05 -0.00011838318769215671 0.0 0.0 0.0 0.0 0.0 0.0 0.0 9.2873101064733991e-05 0.00015880835441656619 0.0 0.0016999620333986573 0.00049992162715338008 0.0 0.0 0.0 0.0 6.841534919068699e-07 -3.0324226618842637e-07 0.0 0.0 0.0 0.0 0.0 0.0 0.0 0.0 0.0 0.0 0.0 0.0 0.0 0.0 0.0 0.0 0.0 0.0 0.0 0.0 0.0 0.0 0.0 0.0 0.0 0.0 0.0 0.0 0.0 0.0 0.0 0.0 0.0 0.0 0.02980567412564232 -0.0062726263606938063 0.0 0.0011551057474035818 -0.0074728222353359405 0.0 -0.027935611270974652 -0.01793854651389731 0.0 0.0 0.0 0.0 -0.017593117035436829 0.034671521272150875 0.0 0.0 0.0 0.0 0.0 0.0 0.0 0.0 0.0 0.0 0.0 0.0 0.0 0.0 0.0 0.0 0.0 0.0 0.0 -0.0042875526030583247 0.0015929068274362712 0.0 0.0 0.0 0.0 0.0084656748567205706 0.00427418050460978 0.0 0.0 0.0 0.0 0.0026546743441108705 0.0057027682580911756 0.0 0.0 0.0 0.0 0.0 0.0 0.0 0.0 0.0 0.0 0.0 0.0 0.0 8.9279343974164131e-06 7.3725311933283243e-05 0.0 0.0 0.0 0.0 0.0 0.0 0.0 -0.00050692920722301645 1.5636777416964216e-06 0.0 0.0 0.0 0.0 0.0 0.0 0.0 -0.00018917065859700395 -4.7366349090796058e-07 0.0 0.0 0.0 0.0 0.0 0.0 0.0 0.0 0.0 0.0 0.0 0.0 0.0 0.0 0.0 0.0 -0.00036591643713053445 0.00030777485373813447 0.0 0.0024307770123562261 -0.0025768935142259381 0.0 0.0 0.0 0.0 0.0 0.0 0.0 0.0 0.0 0.0 -0.00022951635277328796 0.00019761767181842473 0.0 0.0 0.0 0.0 0.0 0.0 0.0 0.0 0.0 0.0 -0.00075533695420822579 0.0019392917816273007 0.0 0.0 0.0 0.0 0.0 0.0 0.0 0.0 0.0 0.0 0.0 0.0 0.0 0.0 0.0 0.0 0.0 0.0 0.0 0.0 0.0 0.0 0.0097259064257073508 -0.012281117628769357 0.0 -0.0054887087968920473 6.2696323028557636e-05 0.0 0.0 0.0 0.0 0.0 0.0 0.0 0.00028448042248291756 -5.2918787292816678e-05 0.0 0.0044695242042050495 0.0091640497764440085 0.0 0.05874940219724601 -0.021259619133545619 0.0 0.0 0.0 0.0 -0.00060870891012149858 2.3346239995827536e-05 0.0 -0.021872319166167935 0.0091305707488246752 0.0 </DataArray>
<DataArray Name="radii" format="ascii" type="Float32">2.8604716305380005 2.8604716305380005 2.8604716305380005 2.8604716305380005 2.8604716305380005 2.8604716305380005 2.8604716305380005 2.8604716305380005 2.8604716305380005 2.8604716305380005 2.8604716305380005 2.8604716305380005 2.8604716305380005 2.8604716305380005 2.8604716305380005 2.8604716305380005 2.8604716305380005 2.8604716305380005 2.8604716305380005 2.8604716305380005 2.8604716305380005 2.8604716305380005 2.8604716305380005 2.8604716305380005 2.8604716305380005 2.8604716305380005 2.8604716305380005 2.8604716305380005 2.8604716305380005 2.8604716305380005 2.8604716305380005 2.8604716305380005 2.8604716305380005 2.8604716305380005 2.8604716305380005 2.8604716305380005 2.8604716305380005 2.8604716305380005 2.8604716305380005 2.8604716305380005 2.8604716305380005 2.8604716305380005 2.8604716305380005 2.8604716305380005 2.8604716305380005 2.8604716305380005 2.8604716305380005 2.8604716305380005 2.8604716305380005 2.8604716305380005 2.8604716305380005 2.8604716305380005 2.8604716305380005 2.8604716305380005 2.8604716305380005 2.8604716305380005 2.8604716305380005 2.8604716305380005 2.8604716305380005 2.8604716305380005 2.8604716305380005 2.8604716305380005 2.8604716305380005 2.8604716305380005 2.8604716305380005 2.8604716305380005 2.8604716305380005 2.8604716305380005 2.8604716305380005 2.8604716305380005 2.8604716305380005 2.8604716305380005 2.8604716305380005 2.8604716305380005 2.8604716305380005 2.8604716305380005 2.8604716305380005 2.8604716305380005 2.8604716305380005 2.8604716305380005 2.8604716305380005 2.8604716305380005 2.8604716305380005 2.8604716305380005 2.8604716305380005 2.8604716305380005 2.8604716305380005 2.8604716305380005 2.8604716305380005 2.8604716305380005 2.8604716305380005 2.8604716305380005 2.8604716305380005 2.8604716305380005 2.8604716305380005 2.8604716305380005 2.8604716305380005 2.8604716305380005 2.8604716305380005 2.8604716305380005 2.8604716305380005 2.8604716305380005 2.8604716305380005 2.8604716305380005 2.8604716305380005 2.8604716305380005 2.8604716305380005 2.8604716305380005 2.8604716305380005 2.8604716305380005 2.8604716305380005 2.8604716305380005 2.8604716305380005 2.8604716305380005 2.8604716305380005 2.8604716305380005 2.8604716305380005 2.8604716305380005 2.8604716305380005 2.8604716305380005 2.8604716305380005 2.8604716305380005 2.8604716305380005 2.8604716305380005 2.8604716305380005 2.8604716305380005 2.8604716305380005 2.8604716305380005 2.8604716305380005 2.8604716305380005 2.8604716305380005 2.8604716305380005 2.8604716305380005 2.8604716305380005 2.8604716305380005 2.8604716305380005 2.8604716305380005 2.8604716305380005 2.8604716305380005 2.8604716305380005 2.8604716305380005 2.8604716305380005 2.8604716305380005 2.8604716305380005 2.8604716305380005 2.8604716305380005 2.8604716305380005 2.8604716305380005 2.8604716305380005 2.8604716305380005 2.8604716305380005 2.8604716305380005 2.8604716305380005 2.8604716305380005 2.6604716305380003 2.8604716305380005 2.8604716305380005 2.8604716305380005 2.8604716305380005 2.8604716305380005 </DataArray>
</PointData>
<CellData/>
</Piece>
</UnstructuredGrid>
</VTKFile>
