<?xml version="1.0" ?>
<VTKFile byte_order="LittleEndian" type="UnstructuredGrid" version="0.1">
<UnstructuredGrid>
<Piece NumberOfCells="0" NumberOfPoints="69">
<Points>
<DataArray NumberOfComponents="3" format="ascii" type="Float32">18.799999999999997 2.9925796838159271 3.0 11.0 3.9925796838159271 3.0 53.0 4.9925796838159258 3.0 101.0 4.9925796838159258 3.0 160.0 4.9925796838159258 3.0 27.0 11.992579683815926 3.0 188.0 11.992579683815926 3.0 170.0 17.992579683815926 3.0 181.0 19.992579683815926 3.0 71.0 20.992579683815926 3.0 95.0 20.992579683815926 3.0 140.0 22.992579683815926 3.0 89.0 30.992579683815926 3.0 98.0 35.992579683815926 3.0 21.0 36.992579683815926 3.0 49.0 39.992579683815926 3.0 102.0 41.992579683815926 3.0 60.0 47.992579683815926 3.0 9.0 54.992579683815926 3.0 40.0 59.992579683815926 3.0 133.0 61.992579683815926 3.0 67.0 63.992579683815926 3.0 95.0 64.992579683815947 3.0 137.0 67.992579683815947 3.0 45.0 68.992579683815947 3.0 40.0 71.992579683815947 3.0 20.0 74.992579683815947 3.0 184.0 75.992579683815947 3.0 6.0 81.992579683815947 3.0 116.0 81.992579683815947 3.0 176.0 85.992579683815947 3.0 47.0 91.992579683815947 3.0 62.0 97.992579683815947 3.0 45.0 99.992579683815947 3.0 83.0 114.99257968381595 3.0 106.0 118.99257968381595 3.0 127.0 122.99257968381595 3.0 110.0 123.99257968381595 3.0 137.0 126.99257968381595 3.0 12.0 130.9925796838159 3.0 41.0 130.9925796838159 3.0 108.0 132.9925796838159 3.0 97.0 134.9925796838159 3.0 159.0 139.9925796838159 3.0 111.0 140.9925796838159 3.0 183.0 140.9925796838159 3.0 79.0 141.9925796838159 3.0 68.0 143.9925796838159 3.0 37.0 148.9925796838159 3.0 52.0 149.9925796838159 3.0 132.0 151.9925796838159 3.0 63.0 152.9925796838159 3.0 189.0 152.9925796838159 3.0 69.0 153.9925796838159 3.0 105.0 154.9925796838159 3.0 180.0 159.9925796838159 3.0 82.0 166.9925796838159 3.0 131.0 166.9925796838159 3.0 118.0 167.9925796838159 3.0 21.0 168.9925796838159 3.0 191.0 168.9925796838159 3.0 13.0 173.9925796838159 3.0 35.0 173.9925796838159 3.0 71.0 173.9925796838159 3.0 55.0 176.9925796838159 3.0 187.0 178.9925796838159 3.0 36.0 191.9925796838159 3.0 24.0 193.9925796838159 3.0 131.0 193.9925796838159 3.0 </DataArray>
</Points>
<Cells>
<DataArray Name="connectivity" format="ascii" type="Int32">0</DataArray>
<DataArray Name="offsets" format="ascii" type="Int32">0</DataArray>
<DataArray Name="types" format="ascii" type="UInt8">1</DataArray>
</Cells>
<PointData>
<DataArray Name="Points" NumberOfComponents="3" format="ascii" type="Float32">18.799999999999997 2.9925796838159271 3.0 11.0 3.9925796838159271 3.0 53.0 4.9925796838159258 3.0 101.0 4.9925796838159258 3.0 160.0 4.9925796838159258 3.0 27.0 11.992579683815926 3.0 188.0 11.992579683815926 3.0 170.0 17.992579683815926 3.0 181.0 19.992579683815926 3.0 71.0 20.992579683815926 3.0 95.0 20.992579683815926 3.0 140.0 22.992579683815926 3.0 89.0 30.992579683815926 3.0 98.0 35.992579683815926 3.0 21.0 36.992579683815926 3.0 49.0 39.992579683815926 3.0 102.0 41.992579683815926 3.0 60.0 47.992579683815926 3.0 9.0 54.992579683815926 3.0 40.0 59.992579683815926 3.0 133.0 61.992579683815926 3.0 67.0 63.992579683815926 3.0 95.0 64.992579683815947 3.0 137.0 67.992579683815947 3.0 45.0 68.992579683815947 3.0 40.0 71.992579683815947 3.0 20.0 74.992579683815947 3.0 184.0 75.992579683815947 3.0 6.0 81.992579683815947 3.0 116.0 81.992579683815947 3.0 176.0 85.992579683815947 3.0 47.0 91.992579683815947 3.0 62.0 97.992579683815947 3.0 45.0 99.992579683815947 3.0 83.0 114.99257968381595 3.0 106.0 118.99257968381595 3.0 127.0 122.99257968381595 3.0 110.0 123.99257968381595 3.0 137.0 126.99257968381595 3.0 12.0 130.9925796838159 3.0 41.0 130.9925796838159 3.0 108.0 132.9925796838159 3.0 97.0 134.9925796838159 3.0 159.0 139.9925796838159 3.0 111.0 140.9925796838159 3.0 183.0 140.9925796838159 3.0 79.0 141.9925796838159 3.0 68.0 143.9925796838159 3.0 37.0 148.9925796838159 3.0 52.0 149.9925796838159 3.0 132.0 151.9925796838159 3.0 63.0 152.9925796838159 3.0 189.0 152.9925796838159 3.0 69.0 153.9925796838159 3.0 105.0 154.9925796838159 3.0 180.0 159.9925796838159 3.0 82.0 166.9925796838159 3.0 131.0 166.9925796838159 3.0 118.0 167.9925796838159 3.0 21.0 168.9925796838159 3.0 191.0 168.9925796838159 3.0 13.0 173.9925796838159 3.0 35.0 173.9925796838159 3.0 71.0 173.9925796838159 3.0 55.0 176.9925796838159 3.0 187.0 178.9925796838159 3.0 36.0 191.9925796838159 3.0 24.0 193.9925796838159 3.0 131.0 193.9925796838159 3.0 </DataArray>
<DataArray Name="forces" NumberOfComponents="3" format="ascii" type="Float32">0.0 0.0 0.0 0.0 0.0 0.0 0.0 0.0 0.0 0.0 0.0 0.0 0.0 0.0 0.0 0.0 0.0 0.0 0.0 0.0 0.0 0.0 0.0 0.0 0.0 0.0 0.0 0.0 0.0 0.0 0.0 0.0 0.0 0.0 0.0 0.0 0.0 0.0 0.0 0.0 0.0 0.0 0.0 0.0 0.0 0.0 0.0 0.0 0.0 0.0 0.0 0.0 0.0 0.0 0.0 0.0 0.0 0.0 0.0 0.0 0.0 0.0 0.0 0.0 0.0 0.0 0.0 0.0 0.0 0.0 0.0 0.0 0.0 0.0 0.0 0.0 0.0 0.0 0.0 0.0 0.0 0.0 0.0 0.0 0.0 0.0 0.0 0.0 0.0 0.0 0.0 0.0 0.0 0.0 0.0 0.0 0.0 0.0 0.0 0.0 0.0 0.0 0.0 0.0 0.0 0.0 0.0 0.0 0.0 0.0 0.0 0.0 0.0 0.0 0.0 0.0 0.0 0.0 0.0 0.0 0.0 0.0 0.0 0.0 0.0 0.0 0.0 0.0 0.0 0.0 0.0 0.0 0.0 0.0 0.0 0.0 0.0 0.0 0.0 0.0 0.0 0.0 0.0 0.0 0.0 0.0 0.0 0.0 0.0 0.0 0.0 0.0 0.0 0.0 0.0 0.0 0.0 0.0 0.0 0.0 0.0 0.0 0.0 0.0 0.0 0.0 0.0 0.0 0.0 0.0 0.0 0.0 0.0 0.0 0.0 0.0 0.0 0.0 0.0 0.0 0.0 0.0 0.0 0.0 0.0 0.0 0.0 0.0 0.0 0.0 0.0 0.0 0.0 0.0 0.0 0.0 0.0 0.0 0.0 0.0 0.0 0.0 0.0 0.0 0.0 0.0 0.0 </DataArray>
<DataArray Name="radii" format="ascii" type="Float32">2.7 2.7 2.7 2.7 2.7 2.7 2.7 2.7 2.7 2.7 2.7 2.7 2.7 2.7 2.7 2.7 2.7 2.7 2.7 2.7 2.7 2.7 2.7 2.7 2.7 2.7 2.7 2.7 2.7 2.7 2.7 2.7 2.7 2.7 2.7 2.7 2.7 2.7 2.7 2.7 2.7 2.7 2.7 2.7 2.7 2.7 2.7 2.7 2.7 2.7 2.7 2.7 2.7 2.7 2.7 2.7 2.7 2.7 2.7 2.7 2.7 2.7 2.7 2.7 2.7 2.7 2.7 2.7 2.7 </DataArray>
</PointData>
<CellData/>
</Piece>
</UnstructuredGrid>
</VTKFile>
