<?xml version="1.0" ?>
<VTKFile byte_order="LittleEndian" type="UnstructuredGrid" version="0.1">
<UnstructuredGrid>
<Piece NumberOfCells="0" NumberOfPoints="38">
<Points>
<DataArray NumberOfComponents="3" format="ascii" type="Float32">4.1865740916910665 4.7945911982777689 2 8.1263683102648461 1.5999999999999999 2 18.444902025096969 6.6691646323200144 2 22.062002596035466 1.5999999999999999 2 24.503531290957334 1.5999999999999999 2 36.251389234342419 4.7249849459931621 2 40.184739069796663 7.2954551565150823 2 45.647917052041919 1.5999999999999999 2 50.222762937937546 1.5999999999999999 2 51.842802677651939 4.3925830725049897 2 54.347150597642433 5.3878554029585368 2 56.493009075074667 3.7661096538936674 2 59.526873765224863 4.2607610242405114 2 81.619326322303877 1.5999999999999999 2 86.349052911934123 4.3005702920297306 2 88.946738920585915 4.6656939109835358 2 91.385827467473277 4.6939583767020059 2 94.888535545341526 7.3648046655441739 2 98.4 1.5999999999999999 2 3.699976526150079 1.5999999999999999 2 7.8264921368702849 7.2049870267327298 2 17.397981709952315 1.5999999999999999 2 21.871654790034267 7.1697139508036036 2 23.163763451586473 4.4196506461854419 2 34.765615102982295 1.5999999999999999 2 39.142824004550306 1.5999999999999999 2 46.694054746571396 4.569895768029717 2 50.516284917339945 7.2737409191831768 2 52.550287299694837 1.5999999999999999 2 54.893250731633714 1.5999999999999999 2 55.369163870956626 8.2152974044221825 2 60.019802811516378 1.5999999999999999 2 82.910688585349192 4.2964516320428761 2 85.963550256065801 1.5999999999999999 2 88.128554537565094 1.5999999999999999 2 90.261400839132094 1.5999999999999999 2 94.456409062482223 1.5999999999999999 2 98.4 4.8500202163101243 2 </DataArray>
</Points>
<Cells>
<DataArray Name="connectivity" format="ascii" type="Int32">0</DataArray>
<DataArray Name="offsets" format="ascii" type="Int32">0</DataArray>
<DataArray Name="types" format="ascii" type="UInt8">1</DataArray>
</Cells>
<PointData>
<DataArray Name="Points" NumberOfComponents="3" format="ascii" type="Float32">4.1865740916910665 4.7945911982777689 2 8.1263683102648461 1.5999999999999999 2 18.444902025096969 6.6691646323200144 2 22.062002596035466 1.5999999999999999 2 24.503531290957334 1.5999999999999999 2 36.251389234342419 4.7249849459931621 2 40.184739069796663 7.2954551565150823 2 45.647917052041919 1.5999999999999999 2 50.222762937937546 1.5999999999999999 2 51.842802677651939 4.3925830725049897 2 54.347150597642433 5.3878554029585368 2 56.493009075074667 3.7661096538936674 2 59.526873765224863 4.2607610242405114 2 81.619326322303877 1.5999999999999999 2 86.349052911934123 4.3005702920297306 2 88.946738920585915 4.6656939109835358 2 91.385827467473277 4.6939583767020059 2 94.888535545341526 7.3648046655441739 2 98.4 1.5999999999999999 2 3.699976526150079 1.5999999999999999 2 7.8264921368702849 7.2049870267327298 2 17.397981709952315 1.5999999999999999 2 21.871654790034267 7.1697139508036036 2 23.163763451586473 4.4196506461854419 2 34.765615102982295 1.5999999999999999 2 39.142824004550306 1.5999999999999999 2 46.694054746571396 4.569895768029717 2 50.516284917339945 7.2737409191831768 2 52.550287299694837 1.5999999999999999 2 54.893250731633714 1.5999999999999999 2 55.369163870956626 8.2152974044221825 2 60.019802811516378 1.5999999999999999 2 82.910688585349192 4.2964516320428761 2 85.963550256065801 1.5999999999999999 2 88.128554537565094 1.5999999999999999 2 90.261400839132094 1.5999999999999999 2 94.456409062482223 1.5999999999999999 2 98.4 4.8500202163101243 2 </DataArray>
<DataArray Name="forces" NumberOfComponents="3" format="ascii" type="Float32">0.053915411881498843 0.11617708264542778 0.0 0.071775771066189709 -0.15131836761476547 0.0 -0.043916267056604189 0.29684356548267382 0.0 -0.0053578876188793562 -0.16102403416208944 0.0 -0.014210617861950325 -0.17180998261882879 0.0 0.00049884943897371414 0.10105984034425497 0.0 -0.0036260624661357127 0.19081187360910135 0.0 0.030317269956797177 -0.046311816541090338 0.0 0.061186956413735616 -0.16523820950240506 0.0 0.038855749223452682 0.084927287345575808 0.0 -0.0016173092722478466 0.31331074943045922 0.0 0.070553467261927461 0.33966441887763837 0.0 -0.078037373039521532 0.098957355010310444 0.0 -0.012125902595702232 -0.20138946010613165 0.0 -0.30670594281647834 0.1152428631500152 0.0 -0.17953796064601785 0.099084517502650127 0.0 -0.095729176697322282 0.094303716560122583 0.0 0.0010777461931319489 0.13377728544774803 0.0 1.2605022795097054 0.0 0.0 0.037114704885762073 0.0 0.0 0.036077456877732506 0.17387360351246825 0.0 0.015958255659262677 -0.22575101998596739 0.0 -0.06995346762047025 0.1495572401702675 0.0 -0.081170527227057102 0.098497742926933501 0.0 -0.041117535193138099 -0.0801979941613402 0.0 -0.014189532472517197 -0.29382267507598114 0.0 -0.012256914722396428 0.051506123073143284 0.0 0.029850968631367592 0.12132912632594689 0.0 0.094759902621897263 -0.31207150251610499 0.0 0.11938089821505726 -0.4183265746772869 0.0 -0.14477517875794607 0.36698672555628048 0.0 -0.035444199797505127 -0.48901207043613104 0.0 0.21003186728051487 0.13414630080507367 0.0 -0.0078183555939514982 -0.46720301442543838 0.0 -0.042891507761454228 -0.025879384199211687 0.0 -0.030960223947090526 0.0 0.0 -0.031479270921799918 -0.2347919290998203 0.0 0.8403550741200595 0.13708679101906876 0.0 </DataArray>
<DataArray Name="radii" format="ascii" type="Float32">1.5999999999999999 1.5999999999999999 1.5999999999999999 1.5999999999999999 1.5999999999999999 1.5999999999999999 1.5999999999999999 1.5999999999999999 1.5999999999999999 1.5999999999999999 1.5999999999999999 1.5999999999999999 1.5999999999999999 1.5999999999999999 1.5999999999999999 1.5999999999999999 1.5999999999999999 1.5999999999999999 1.5999999999999999 1.5999999999999999 1.5999999999999999 1.5999999999999999 1.5999999999999999 1.5999999999999999 1.5999999999999999 1.5999999999999999 1.5999999999999999 1.5999999999999999 1.5999999999999999 1.5999999999999999 1.5999999999999999 1.5999999999999999 1.5999999999999999 1.5999999999999999 1.5999999999999999 1.5999999999999999 1.5999999999999999 1.5999999999999999 </DataArray>
</PointData>
<CellData/>
</Piece>
</UnstructuredGrid>
</VTKFile>
