<?xml version="1.0" ?>
<VTKFile byte_order="LittleEndian" type="UnstructuredGrid" version="0.1">
<UnstructuredGrid>
<Piece NumberOfCells="0" NumberOfPoints="92">
<Points>
<DataArray NumberOfComponents="3" format="ascii" type="Float32">28.160678191959786 0.7 2 64.548664097641563 8.7320163357141922 2 67.675381584873392 0.7 2 72.32763740732571 7.8779442714806995 2 72.103371333538931 5.5444065890199559 2 74.022136200266857 0.7 2 14.866805412314342 5.0814196701643928 2 31.451063315084557 7.9805753085550242 2 72.723024735469778 6.7668310570570025 2 66.557374539670278 4.9647218259132222 2 28.399862008126 3.0427511149708582 2 72.038480353332815 2.9185293788862099 2 71.510842887564365 4.5404163427529234 2 76.813102204214104 4.0153866797612707 2 79.951645488630248 8.2956569674584912 2 11.233427533937377 6.3568432999454769 2 28.259432350623051 7.8032471448779948 2 30.260894334196703 7.8174524200775704 2 40.023180237632268 5.3435913558576047 2 71.7330803032593 6.7366934274104642 2 73.685667838912579 6.7255468323204992 2 75.988089916597829 5.0022986956265587 2 76.848979924519028 0.7 2 27.981215565328366 2.3201537931288128 2 61.966452571794129 2.8992825482113727 2 66.016329173668581 6.7085529686021914 2 69.096738481066737 5.9971827633056352 2 75.727064405341849 9.679850665497197 2 76.939538891684506 5.3355271311512249 2 11.723468197453093 3.028957251368432 2 13.846770379330405 8.3775794608292848 2 27.597094406151793 6.8626677783885341 2 31.223926012124728 4.5301366487233006 2 34.941425663888985 7.3343584297998827 2 63.824690909451419 3.2082523476004985 2 66.606845341334676 0.7 2 69.016380956245087 7.1382831978259089 2 75.64253043480393 8.4064076746651448 2 10.046578169072285 6.6128957658157681 2 15.029932600693604 8.2807732959957203 2 24.794980817798937 7.4196151399199577 2 30.849932170502544 2.8883309211391222 2 61.542639629514525 6.4448192177123067 2 68.101152919441176 2.5793217544955573 2 64.703415822310333 7.3386312043463207 2 71.156232702018883 3.6618424089236208 2 74.072043738524272 1.9181511634525326 2 78.947424578273726 8.6334973003132802 2 78.710575990160834 2.7116510930087006 2 13.481062306259952 0.7 2 12.885265896619032 6.0018945309978999 2 26.441232699392685 6.7119387311915464 2 30.398906437110497 5.3683262686562374 2 32.054088515744724 4.6386214151752583 2 34.240650023746866 6.5175891320594586 2 41.326936354429613 6.4809436893691483 2 44.632019976825418 4.8561116562383058 2 62.891630967964041 2.9832565614242816 2 63.965960433153143 2.2592910083064854 2 73.109717267551162 5.7048798106931446 2 74.597589110116473 6.9684107012544407 2 77.797338199874517 3.1469995051444877 2 80.496543232084306 7.1950003606466435 2 16.371489462329365 2.6379518783590141 2 27.450760841635489 3.5127097124055315 2 29.300571361994596 2.7346381481859376 2 40.749447420843616 4.6765101100028179 2 63.751706011400159 6.3807891281136078 2 68.481608136340313 5.3309745872808509 2 67.636365929685866 1.6513302150416487 2 78.251204285675655 5.6637756516788365 2 10.772535222893154 3.2345806146072511 2 13.454779296960142 1.8765300009139283 2 16.806542118018825 3.5430542917019032 2 28.346416195124061 4.0516372309581472 2 28.967417535139713 5.0478130938780774 2 64.841950171283528 2.7844898872037258 2 66.680355232490953 1.5681250688898125 2 73.378766901154393 2.6989627602619062 2 77.743816601943706 0.7 2 9.5454670937205517 4.2503608069230587 2 13.759093512552043 4.9322625032689622 2 30.419758800684413 2.2178995473181198 2 31.513729105553242 3.3977681613372366 2 43.579748473342882 4.7728305622422837 2 62.656236030686863 6.0605153542415957 2 69.24535806466757 4.6333877553802676 2 67.907361743447197 7.6576707701284068 2 70.306807355212285 4.2745889764704756 2 71.007306641386521 2.7321991710459828 2 75.991131329382284 3.9085762147830483 2 79.218123298311212 7.3522554477003075 2 </DataArray>
</Points>
<Cells>
<DataArray Name="connectivity" format="ascii" type="Int32">0</DataArray>
<DataArray Name="offsets" format="ascii" type="Int32">0</DataArray>
<DataArray Name="types" format="ascii" type="UInt8">1</DataArray>
</Cells>
<PointData>
<DataArray Name="Points" NumberOfComponents="3" format="ascii" type="Float32">28.160678191959786 0.7 2 64.548664097641563 8.7320163357141922 2 67.675381584873392 0.7 2 72.32763740732571 7.8779442714806995 2 72.103371333538931 5.5444065890199559 2 74.022136200266857 0.7 2 14.866805412314342 5.0814196701643928 2 31.451063315084557 7.9805753085550242 2 72.723024735469778 6.7668310570570025 2 66.557374539670278 4.9647218259132222 2 28.399862008126 3.0427511149708582 2 72.038480353332815 2.9185293788862099 2 71.510842887564365 4.5404163427529234 2 76.813102204214104 4.0153866797612707 2 79.951645488630248 8.2956569674584912 2 11.233427533937377 6.3568432999454769 2 28.259432350623051 7.8032471448779948 2 30.260894334196703 7.8174524200775704 2 40.023180237632268 5.3435913558576047 2 71.7330803032593 6.7366934274104642 2 73.685667838912579 6.7255468323204992 2 75.988089916597829 5.0022986956265587 2 76.848979924519028 0.7 2 27.981215565328366 2.3201537931288128 2 61.966452571794129 2.8992825482113727 2 66.016329173668581 6.7085529686021914 2 69.096738481066737 5.9971827633056352 2 75.727064405341849 9.679850665497197 2 76.939538891684506 5.3355271311512249 2 11.723468197453093 3.028957251368432 2 13.846770379330405 8.3775794608292848 2 27.597094406151793 6.8626677783885341 2 31.223926012124728 4.5301366487233006 2 34.941425663888985 7.3343584297998827 2 63.824690909451419 3.2082523476004985 2 66.606845341334676 0.7 2 69.016380956245087 7.1382831978259089 2 75.64253043480393 8.4064076746651448 2 10.046578169072285 6.6128957658157681 2 15.029932600693604 8.2807732959957203 2 24.794980817798937 7.4196151399199577 2 30.849932170502544 2.8883309211391222 2 61.542639629514525 6.4448192177123067 2 68.101152919441176 2.5793217544955573 2 64.703415822310333 7.3386312043463207 2 71.156232702018883 3.6618424089236208 2 74.072043738524272 1.9181511634525326 2 78.947424578273726 8.6334973003132802 2 78.710575990160834 2.7116510930087006 2 13.481062306259952 0.7 2 12.885265896619032 6.0018945309978999 2 26.441232699392685 6.7119387311915464 2 30.398906437110497 5.3683262686562374 2 32.054088515744724 4.6386214151752583 2 34.240650023746866 6.5175891320594586 2 41.326936354429613 6.4809436893691483 2 44.632019976825418 4.8561116562383058 2 62.891630967964041 2.9832565614242816 2 63.965960433153143 2.2592910083064854 2 73.109717267551162 5.7048798106931446 2 74.597589110116473 6.9684107012544407 2 77.797338199874517 3.1469995051444877 2 80.496543232084306 7.1950003606466435 2 16.371489462329365 2.6379518783590141 2 27.450760841635489 3.5127097124055315 2 29.300571361994596 2.7346381481859376 2 40.749447420843616 4.6765101100028179 2 63.751706011400159 6.3807891281136078 2 68.481608136340313 5.3309745872808509 2 67.636365929685866 1.6513302150416487 2 78.251204285675655 5.6637756516788365 2 10.772535222893154 3.2345806146072511 2 13.454779296960142 1.8765300009139283 2 16.806542118018825 3.5430542917019032 2 28.346416195124061 4.0516372309581472 2 28.967417535139713 5.0478130938780774 2 64.841950171283528 2.7844898872037258 2 66.680355232490953 1.5681250688898125 2 73.378766901154393 2.6989627602619062 2 77.743816601943706 0.7 2 9.5454670937205517 4.2503608069230587 2 13.759093512552043 4.9322625032689622 2 30.419758800684413 2.2178995473181198 2 31.513729105553242 3.3977681613372366 2 43.579748473342882 4.7728305622422837 2 62.656236030686863 6.0605153542415957 2 69.24535806466757 4.6333877553802676 2 67.907361743447197 7.6576707701284068 2 70.306807355212285 4.2745889764704756 2 71.007306641386521 2.7321991710459828 2 75.991131329382284 3.9085762147830483 2 79.218123298311212 7.3522554477003075 2 </DataArray>
<DataArray Name="forces" NumberOfComponents="3" format="ascii" type="Float32">-0.021159989239033838 -0.53702754377510442 0.0 0.008912289006308638 0.15794743684582982 0.0 0.031024162419266078 -0.6612830132507761 0.0 -0.00023242006207748606 0.18431362534333362 0.0 -0.03284544314872706 0.15297057276989326 0.0 -0.024449491845618065 -0.61623600204057483 0.0 0.25217667994798942 0.3279546438542037 0.0 0.021458934670332247 0.13514521707326668 0.0 -0.031375375961768384 0.10393087459149086 0.0 -0.00069660604269239368 0.097210855595411538 0.0 0.030570839217813582 -0.0007781113593372524 0.0 0.020541846018379106 0.0028864471254341981 0.0 -0.033338999506306449 0.13949197022642462 0.0 0.053220326129557849 0.068799794300617972 0.0 0.043969387255490641 0.14848534042747136 0.0 0.077777225869183286 0.083449778109025194 0.0 -0.051781509184640834 0.23027450714434833 0.0 -0.0068862222464761702 0.19612962695828551 0.0 0.014030531845936056 0.27259943420036015 0.0 -0.039527603377120822 0.24110170332778452 0.0 -0.018521934921451044 0.14081604292854874 0.0 0.084170259062676667 0.0504756590475407 0.0 -0.042798632425438687 -0.56818906066860997 0.0 0.010558202990520776 -0.052919363605601136 0.0 -0.097093610596119817 0.071158988194415407 0.0 -0.08815173920898503 0.26230678901519028 0.0 -0.075318098764893496 0.15297097407503307 0.0 -0.12417012934365317 0.076417211888134343 0.0 0.063490746733163073 0.12959419687839047 0.0 0.0194255899172045 0.0022238005569961833 0.0 0.0029852726170495336 0.21148366486565789 0.0 -0.014976888212540396 0.14645695744356296 0.0 -0.0082790571800180346 0.12340890236174068 0.0 0.0740920617383789 0.21760932818566248 0.0 6.4843629860977803e-05 0.074476494924513109 0.0 0.0057763289619489067 -0.6883270859038173 0.0 0.0077969459560972565 0.16398959955994635 0.0 0.033675730538400936 0.065257149103230522 0.0 0.024884763934565013 0.21475617705913702 0.0 -0.017326061184721936 0.1697264050472308 0.0 -0.008764043621740103 0.085155187121807169 0.0 0.064675815123899139 0.026706514823474026 0.0 -0.028918541797320729 0.26288487675934391 0.0 -0.034424563365281186 0.014565396478438353 0.0 -0.039567631502720205 0.17457828194406727 0.0 0.044405062659647124 0.014320939271154409 0.0 -0.021843894712394035 0.028811881573166442 0.0 0.014490926425259228 0.13187891034056537 0.0 0.04685123058866747 0.026454655258509402 0.0 0.019616159433859793 -0.57003981081318966 0.0 -0.10003408482828521 0.086634054233821478 0.0 0.013625621006863819 0.12568394909550304 0.0 -0.048376642645036688 0.093782320676624953 0.0 0.014558364255999132 0.07177294278827423 0.0 0.0068375911165815539 0.21728842140188154 0.0 -0.091828429218600793 0.11385771952360968 0.0 0.08699034570090397 0.18503428617185166 0.0 -0.11083823562096259 0.14139223456600036 0.0 -0.093187191321549595 0.14159469683162701 0.0 0.020427561378075221 0.092867272369875881 0.0 -0.011873980013998253 0.15625040026677864 0.0 0.056194263485393414 0.014581169770799318 0.0 0.094735639925147622 0.12578784361665041 0.0 0.017196273763360748 0.053071705232520638 0.0 0.040188276407978452 -0.078103066726646769 0.0 -0.0038063659571174191 0.02040867515376775 0.0 -0.058144554327504483 0.15437114071816976 0.0 -0.038563635068245644 0.16352444523820459 0.0 0.020148139107509455 0.0099889884107903781 0.0 0.0013641392734731195 0.025712451805183938 0.0 -0.13109369215766276 0.083152084876317922 0.0 0.015158933590337653 0.042437666473660096 0.0 0.034882639459937206 -0.013044077077153771 0.0 -0.0024535118435020931 0.038613485801199388 0.0 0.0070699368168007926 0.079619227909087292 0.0 0.032530668617590686 0.16090375115271463 0.0 0.03641224284304051 0.0019889578877987646 0.0 0.02768947978749714 0.012487949194611388 0.0 0.00018676108496493149 0.059174500318952189 0.0 -0.030436199158515032 -0.43381258292977964 0.0 -0.070573546279683153 0.072743277518828253 0.0 0.034434849399168299 0.070221264781122283 0.0 -0.024012546718634203 0.075067469673385456 0.0 0.0033539302719147422 0.10578296581935925 0.0 0.096286392353328698 0.15847844481631154 0.0 -0.024681766008830458 0.19386594905998528 0.0 0.10039728756455391 0.13085066818677149 0.0 0.064722344382136254 0.1827368974016737 0.0 0.073887091645035069 0.10724750088897643 0.0 -0.026205127998856603 0.022830506894990332 0.0 0.012634761115598466 0.027260864283988773 0.0 0.10121338140195794 0.13622305727704034 0.0 </DataArray>
<DataArray Name="radii" format="ascii" type="Float32">0.7 0.7 0.7 0.7 0.7 0.7 0.7 0.7 0.7 0.7 0.7 0.7 0.7 0.7 0.7 0.7 0.7 0.7 0.7 0.7 0.7 0.7 0.7 0.7 0.7 0.7 0.7 0.7 0.7 0.7 0.7 0.7 0.7 0.7 0.7 0.7 0.7 0.7 0.7 0.7 0.7 0.7 0.7 0.7 0.7 0.7 0.7 0.7 0.7 0.7 0.7 0.7 0.7 0.7 0.7 0.7 0.7 0.7 0.7 0.7 0.7 0.7 0.7 0.7 0.7 0.7 0.7 0.7 0.7 0.7 0.7 0.7 0.7 0.7 0.7 0.7 0.7 0.7 0.7 0.7 0.7 0.7 0.7 0.7 0.7 0.7 0.7 0.7 0.7 0.7 0.7 0.7 </DataArray>
</PointData>
<CellData/>
</Piece>
</UnstructuredGrid>
</VTKFile>
