<?xml version="1.0" ?>
<VTKFile byte_order="LittleEndian" type="UnstructuredGrid" version="0.1">
<UnstructuredGrid>
<Piece NumberOfCells="0" NumberOfPoints="76">
<Points>
<DataArray NumberOfComponents="3" format="ascii" type="Float32">4.2133007480683773 4.387948559187091 2 8.4303337044814981 1 2 18.20448605903157 6.5060790878938697 2 21.410089656132389 1 2 25.102985786451438 1.6046608375469118 2 36.257254514237559 5.9542327532876556 2 40.460949052891102 7.6228031724754688 2 45.312913150844849 2.672381781891378 2 50.29752274631452 1 2 51.606383859112675 4.6366896787666603 2 55.184855374756665 5.6245014455758282 2 56.953108772091021 4.6825955354851247 2 59.553422575216956 4.76199312925434 2 81.445234938463287 2.7201270522294805 2 87.087474413595373 5.1960043130281184 2 88.971635870618158 4.8160954980939907 2 90.557284972706441 5.970105246290859 2 94.247532571579995 7.502418704943028 2 99.0 1 2 3.8666381777083765 1 2 7.8740950816715261 6.7211522965570811 2 17.958033948492286 2.1446364319647833 2 21.990886014352419 7.4496924259991406 2 23.517833123527286 4.6291195184114597 2 35.038038863973703 1 2 40.331371646477905 1 2 46.111241651540269 4.4786484742207273 2 49.529134399508415 7.4496396823553335 2 52.279881880729441 1 2 54.097095593288763 1.7286784421437902 2 55.773682712353825 8.8644212093722476 2 59.698471686858021 1.2933939000351748 2 81.479265863629522 4.6683047242386877 2 85.420830191436337 2.7390132279275083 2 87.510956782868632 2.838183223749958 2 90.243296931195474 1.2033249131193799 2 95.219178560843076 2.6492309623734744 2 99.0 4.9741723570947469 2 3.9047309089169562 6.3632875078720268 2 7.4643450985664277 2.7210003302109409 2 18.579644806575825 8.4685029286823603 2 22.55708874243701 2.8493715151816676 2 23.31508272832259 1 2 35.471910844600906 4.1414812951382141 2 38.497559957750433 7.2595926565585138 2 46.379598549111186 1 2 51.255843067357688 2.7375941730601943 2 51.340831371183349 6.6421152375123773 2 53.21094990359034 5.8234861378956708 2 55.055975519926605 3.6359873007013945 2 58.689462112241777 2.9854104434154851 2 82.427138289307777 1 2 85.251416072105158 4.7045828845332585 2 88.741841504285901 6.794378320051587 2 92.335046594994722 5.1353038737403249 2 95.588767796017905 8.974375946616659 2 99.0 2.9920814229454393 2 2.9885580202450641 2.7854923385134014 2 7.1329159724450175 8.5785691125597889 2 16.348906039388449 1 2 21.35129159051742 9.3449083900040613 2 21.705867761199183 5.4629825449056675 2 34.082605531477299 2.6532807004058894 2 38.709930735110696 2.0392391060698425 2 47.759088783255606 5.583115299879279 2 51.555338691758109 8.598208889351783 2 53.047151489514945 3.4375643410546055 2 55.836437827132777 1 2 54.374767680897079 7.4325322396659699 2 60.633279033885813 3.0708457811271788 2 83.323082393026823 4.7324756943023107 2 86.351498064544359 1 2 88.297018571682969 1 2 89.943896168858629 3.1507290393567664 2 94.157257091090187 1 2 98.043381949062493 6.7169568496640126 2 </DataArray>
</Points>
<Cells>
<DataArray Name="connectivity" format="ascii" type="Int32">0</DataArray>
<DataArray Name="offsets" format="ascii" type="Int32">0</DataArray>
<DataArray Name="types" format="ascii" type="UInt8">1</DataArray>
</Cells>
<PointData>
<DataArray Name="Points" NumberOfComponents="3" format="ascii" type="Float32">4.2133007480683773 4.387948559187091 2 8.4303337044814981 1 2 18.20448605903157 6.5060790878938697 2 21.410089656132389 1 2 25.102985786451438 1.6046608375469118 2 36.257254514237559 5.9542327532876556 2 40.460949052891102 7.6228031724754688 2 45.312913150844849 2.672381781891378 2 50.29752274631452 1 2 51.606383859112675 4.6366896787666603 2 55.184855374756665 5.6245014455758282 2 56.953108772091021 4.6825955354851247 2 59.553422575216956 4.76199312925434 2 81.445234938463287 2.7201270522294805 2 87.087474413595373 5.1960043130281184 2 88.971635870618158 4.8160954980939907 2 90.557284972706441 5.970105246290859 2 94.247532571579995 7.502418704943028 2 99.0 1 2 3.8666381777083765 1 2 7.8740950816715261 6.7211522965570811 2 17.958033948492286 2.1446364319647833 2 21.990886014352419 7.4496924259991406 2 23.517833123527286 4.6291195184114597 2 35.038038863973703 1 2 40.331371646477905 1 2 46.111241651540269 4.4786484742207273 2 49.529134399508415 7.4496396823553335 2 52.279881880729441 1 2 54.097095593288763 1.7286784421437902 2 55.773682712353825 8.8644212093722476 2 59.698471686858021 1.2933939000351748 2 81.479265863629522 4.6683047242386877 2 85.420830191436337 2.7390132279275083 2 87.510956782868632 2.838183223749958 2 90.243296931195474 1.2033249131193799 2 95.219178560843076 2.6492309623734744 2 99.0 4.9741723570947469 2 3.9047309089169562 6.3632875078720268 2 7.4643450985664277 2.7210003302109409 2 18.579644806575825 8.4685029286823603 2 22.55708874243701 2.8493715151816676 2 23.31508272832259 1 2 35.471910844600906 4.1414812951382141 2 38.497559957750433 7.2595926565585138 2 46.379598549111186 1 2 51.255843067357688 2.7375941730601943 2 51.340831371183349 6.6421152375123773 2 53.21094990359034 5.8234861378956708 2 55.055975519926605 3.6359873007013945 2 58.689462112241777 2.9854104434154851 2 82.427138289307777 1 2 85.251416072105158 4.7045828845332585 2 88.741841504285901 6.794378320051587 2 92.335046594994722 5.1353038737403249 2 95.588767796017905 8.974375946616659 2 99.0 2.9920814229454393 2 2.9885580202450641 2.7854923385134014 2 7.1329159724450175 8.5785691125597889 2 16.348906039388449 1 2 21.35129159051742 9.3449083900040613 2 21.705867761199183 5.4629825449056675 2 34.082605531477299 2.6532807004058894 2 38.709930735110696 2.0392391060698425 2 47.759088783255606 5.583115299879279 2 51.555338691758109 8.598208889351783 2 53.047151489514945 3.4375643410546055 2 55.836437827132777 1 2 54.374767680897079 7.4325322396659699 2 60.633279033885813 3.0708457811271788 2 83.323082393026823 4.7324756943023107 2 86.351498064544359 1 2 88.297018571682969 1 2 89.943896168858629 3.1507290393567664 2 94.157257091090187 1 2 98.043381949062493 6.7169568496640126 2 </DataArray>
<DataArray Name="forces" NumberOfComponents="3" format="ascii" type="Float32">-0.00035872613277020658 0.00060410609536113726 0.0 -0.010517365370794455 -0.023710752867836356 0.0 -0.025645286806362695 -0.0017687863048360137 0.0 -0.013635916954503535 -0.020223519322494214 0.0 0.00088644172145625755 -0.0083711628811513478 0.0 0.009602923520656708 0.010333203424869855 0.0 -0.0041283154481340407 0.0054720561344067213 0.0 -0.012084144997222313 0.010820454371671831 0.0 -0.050558671313981007 -0.071208659611377914 0.0 0.049763786029593575 -0.079039321854778383 0.0 -0.013662886415396071 0.028270593593298893 0.0 0.0069635813191039151 -0.0072765649812089571 0.0 -0.0082677034580629777 0.0050543950025159576 0.0 0.0048422445038204791 0.023628019786887746 0.0 8.7517264001800085e-05 0.023335398760556458 0.0 0.020767865744001253 0.011918320576594629 0.0 0.0029733049027221847 0.03556620970733422 0.0 -0.0070524827803023701 0.017368247728852228 0.0 0.0 -0.0099406054215811501 0.0 0.0023238533125686384 -0.013572320029469285 0.0 -0.00052780481575069235 -5.1536125452238762e-05 0.0 -0.014003489556533959 0.012467286787345669 0.0 0.00038056165830774622 -0.0011276623172985748 0.0 0.049007253069221587 -0.018685697305051242 0.0 -0.032228505498242382 -0.030987653797376544 0.0 0.0011022727803794499 -0.08109066799104224 0.0 -0.0041995541321685689 0.012337002015455581 0.0 -0.00026875641737713967 0.00012392596646222599 0.0 -0.0035838998440750405 -0.020433851428997597 0.0 0.028316553263834934 -0.026409669371115406 0.0 0.0064535289599685821 0.0093096557654223228 0.0 -0.025319979269074804 0.010802595882921836 0.0 0.083030487576883388 -0.021472393674184426 0.0 -0.0016505062797111721 0.002287864087347765 0.0 0.0 0.0 0.0 0.012092435095505968 -0.022557868464036457 0.0 7.0991602374892437e-05 0.0085441322419909232 0.0 0.0063752034381117989 0.0076450210105511902 0.0 -0.00012105078202536397 0.00077452187231462951 0.0 -0.0074294573231614286 0.005338304460958062 0.0 0.0026405984743454215 0.014392784683196585 0.0 -0.00129105222733338 0.0031655717230772654 0.0 0.0054104851388119459 -0.038054543181568916 0.0 0.057608884687297829 0.0060055862295204515 0.0 -0.0035770985628844421 -0.00065495810666299709 0.0 -0.025891381194689637 -0.013722839847291833 0.0 0.057186055352542627 0.067336922959012946 0.0 -0.0073861333966181754 0.05007303944147172 0.0 0.01552086977000087 0.010822877458361685 0.0 0.04628753273096195 0.002031842444984687 0.0 0.021371997164361854 0.0012643170815710783 0.0 0.015613105090020812 -0.029260818483781276 0.0 0.032609604133647191 0.0022350367233509804 0.0 -0.0067660698615762075 0.013943913260637182 0.0 -0.00073886000419638026 0.022107075630966116 0.0 0.0062691793317835439 0.006950494487575727 0.0 0.11407016020840305 0.0054909649928467641 0.0 -3.087262267117627e-05 0.0027961454096647053 0.0 -6.9788180218061913e-05 0.00017481401881693542 0.0 -0.0086746433832486439 -0.015152787011734024 0.0 -0.00038056165830774622 0.0011276623172985748 0.0 -0.05850588769693512 0.024372105580427413 0.0 0.014805674228815301 -0.076523077909445958 0.0 0.021076359697161158 0.010674215522257315 0.0 0.0064286363448818606 0.016231591099969064 0.0 0.00076389913223582977 0.0072209384328022425 0.0 -0.115754921105633 0.064573039743539146 0.0 -0.041463196834970198 -0.083520527926129851 0.0 -0.0084210113754483434 -0.0086097576820664563 0.0 -0.0091424208079469368 0.011147982811013165 0.0 -0.042318943489295907 -0.0046845819929133298 0.0 0.010337645460319345 -0.027446710933999516 0.0 0.00058116666301544911 -0.005404904426275484 0.0 -0.02919954078687715 -0.023374663650595907 0.0 0.013663873091988563 -0.031251276688210441 0.0 0.0058122669495342038 0.013255328227547082 0.0 </DataArray>
<DataArray Name="radii" format="ascii" type="Float32">1 1 1 1 1 1 1 1 1 1 1 1 1 1 1 1 1 1 1 1 1 1 1 1 1 1 1 1 1 1 1 1 1 1 1 1 1 1 1 1 1 1 1 1 1 1 1 1 1 1 1 1 1 1 1 1 1 1 1 1 1 1 1 1 1 1 1 1 1 1 1 1 1 1 1 1 </DataArray>
</PointData>
<CellData/>
</Piece>
</UnstructuredGrid>
</VTKFile>
