<?xml version="1.0" ?>
<VTKFile byte_order="LittleEndian" type="UnstructuredGrid" version="0.1">
<UnstructuredGrid>
<Piece NumberOfCells="0" NumberOfPoints="120">
<Points>
<DataArray NumberOfComponents="3" format="ascii" type="Float32">2.2279232549588106 4.6269744370199701 2 6.3737593184658294 4.3786200149897603 2 10.408739280452346 1 2 12.372900156737623 1 2 12.370355463317727 4.5440436497300567 2 16.457529566228811 5.6714358953044934 2 19.899264642351007 4.6557544857937065 2 25.316226583759271 5.5153542122080745 2 29.38509927425806 5.4147842960537735 2 30.664497866238147 8.1501020113866449 2 31.666792972725133 4.9814379901963557 2 33.506997664167258 4.590135339503572 2 39.859548107676879 5.0338538075052259 2 41.840361441036769 4.6195010094262638 2 44.134093949883081 4.7455908236244628 2 49.641468461084024 5.0434010210109106 2 58.166093649775014 6.2640449238840716 2 61.175031144292525 5.9052228916159839 2 63.578136855224912 1 2 65.539823896702956 1 2 69.833979865115495 8.5182634131232735 2 69.944206569660309 4.6910894291143848 2 74.254637159665037 5.0780114423416629 2 73.168409380350127 8.341611835251971 2 76.034521741853936 5.5609668290423286 2 77.015629241013556 2.349517013500424 2 79.554474526661778 5.1115650520686753 2 83.428930357250437 2.7449562705817194 2 91.873973333267827 2.9348183445932259 2 96.089021068662447 4.4454695380278766 2 1.2742755067421145 1 2 6.3610422557644002 1.0524035311254245 2 8.4110002817705549 4.4763219986654157 2 11.360525880829487 7.9855506813607331 2 15.176827386634816 2.8132816456194019 2 14.46096456539183 7.7338559127718201 2 19.494356273723572 1 2 26.985276707439567 2.9146004854257432 2 26.828044953127751 8.6125870073349553 2 32.664336007074219 8.3945504610812414 2 29.39686086657775 1.9668506133588171 2 33.072192312028633 1 2 36.999327219053015 2.9967510628732117 2 41.073496431656295 2.8105228575558572 2 44.274370355636059 1 2 47.30674499403132 2.8094739836939087 2 57.804031189498794 1 2 62.55502129715164 2.6618611508299037 2 65.364834475952719 5.0144390143982758 2 67.879780803737617 5.2109444413304615 2 66.013266700141628 8.4919475742390897 2 68.827949904765035 1.249918926813431 2 72.641030717577422 1.5443856914049516 2 76.571188004856396 7.5249090524173665 2 75.665547936508219 1 2 78.01994594368557 4.0789542690572747 2 80.433336201044611 1 2 84.162188609203 6.5535408110583049 2 94.315868315974683 5.5258933924782543 2 97.129407926940829 2.7556072828202645 2 1 6.1997117150357459 2 5.9155409847975573 6.317846056050306 2 9.5057533998223764 2.7781873215880806 2 13.1956148647141 2.7499908510728335 2 12.682207700798404 6.5057824494496908 2 16.910594211008448 3.7700854011561886 2 20.185579031033782 6.6568103557991334 2 25.102891257126636 3.5805367671711625 2 27.513701115991005 4.7528984716782556 2 28.845248964500453 7.319913397635216 2 30.256146747453435 3.6461668979738864 2 33.017342384667444 6.4138592250201647 2 37.875397974338838 4.7847981943298654 2 42.154207556765542 6.5742165679283442 2 44.140175199475991 6.7493103812879047 2 49.269954697747693 3.0795099433952875 2 57.652732061484187 8.191218567345345 2 63.138506897340299 6.1691280216849664 2 65.054912404009627 2.9375669421285497 2 66.894953100905042 2.2902934335266298 2 68.480535420690913 7.0581287470926002 2 70.432192013820242 6.6305549714734004 2 73.155471135625376 3.3976116146418556 2 75.067011265727075 8.9591507158709867 2 74.646342415669395 6.9933348926583516 2 78.457204504729589 1 2 81.289992108893216 6.6735057497526826 2 84.383028444004722 1 2 92.190985325636788 1 2 96.074294419126886 6.4412878719976527 2 1 2.9790558454623883 2 5.0780898809712687 2.5863553926110958 2 10.388603602892914 4.7208002811270182 2 9.8719987738282615 6.6509622538150213 2 14.363613327376113 1 2 14.497821281925091 5.7503675183338503 2 20.518530728224302 2.7651865873531438 2 26.897235625419871 1 2 26.969039267565339 6.6563986039980305 2 34.804980524471198 7.3197262911071599 2 31.082581149122806 1 2 32.087406105623607 2.8587035906579219 2 37.027587007175327 1 2 42.300309311374633 1 2 43.335988043037311 2.9007778784317915 2 48.361591876756762 1 2 56.755106799729838 2.7257711398232942 2 61.623883585871994 1 2 63.571266902082421 4.2645224516099365 2 68.458264430428258 3.3912917163431278 2 66.532037940352311 6.5909698897433415 2 70.102615323313529 2.7903022253368004 2 70.802242468136583 1 2 77.005031554197657 9.4412808850457139 2 75.080821411840972 2.8495054063241367 2 77.9903369159763 6.05870020664078 2 79.451888825377821 2.7285563105837705 2 86.119673790229783 6.9232425083247522 2 93.646103052084044 3.6910885262365372 2 96.255595295941546 1 2 </DataArray>
</Points>
<Cells>
<DataArray Name="connectivity" format="ascii" type="Int32">0</DataArray>
<DataArray Name="offsets" format="ascii" type="Int32">0</DataArray>
<DataArray Name="types" format="ascii" type="UInt8">1</DataArray>
</Cells>
<PointData>
<DataArray Name="Points" NumberOfComponents="3" format="ascii" type="Float32">2.2279232549588106 4.6269744370199701 2 6.3737593184658294 4.3786200149897603 2 10.408739280452346 1 2 12.372900156737623 1 2 12.370355463317727 4.5440436497300567 2 16.457529566228811 5.6714358953044934 2 19.899264642351007 4.6557544857937065 2 25.316226583759271 5.5153542122080745 2 29.38509927425806 5.4147842960537735 2 30.664497866238147 8.1501020113866449 2 31.666792972725133 4.9814379901963557 2 33.506997664167258 4.590135339503572 2 39.859548107676879 5.0338538075052259 2 41.840361441036769 4.6195010094262638 2 44.134093949883081 4.7455908236244628 2 49.641468461084024 5.0434010210109106 2 58.166093649775014 6.2640449238840716 2 61.175031144292525 5.9052228916159839 2 63.578136855224912 1 2 65.539823896702956 1 2 69.833979865115495 8.5182634131232735 2 69.944206569660309 4.6910894291143848 2 74.254637159665037 5.0780114423416629 2 73.168409380350127 8.341611835251971 2 76.034521741853936 5.5609668290423286 2 77.015629241013556 2.349517013500424 2 79.554474526661778 5.1115650520686753 2 83.428930357250437 2.7449562705817194 2 91.873973333267827 2.9348183445932259 2 96.089021068662447 4.4454695380278766 2 1.2742755067421145 1 2 6.3610422557644002 1.0524035311254245 2 8.4110002817705549 4.4763219986654157 2 11.360525880829487 7.9855506813607331 2 15.176827386634816 2.8132816456194019 2 14.46096456539183 7.7338559127718201 2 19.494356273723572 1 2 26.985276707439567 2.9146004854257432 2 26.828044953127751 8.6125870073349553 2 32.664336007074219 8.3945504610812414 2 29.39686086657775 1.9668506133588171 2 33.072192312028633 1 2 36.999327219053015 2.9967510628732117 2 41.073496431656295 2.8105228575558572 2 44.274370355636059 1 2 47.30674499403132 2.8094739836939087 2 57.804031189498794 1 2 62.55502129715164 2.6618611508299037 2 65.364834475952719 5.0144390143982758 2 67.879780803737617 5.2109444413304615 2 66.013266700141628 8.4919475742390897 2 68.827949904765035 1.249918926813431 2 72.641030717577422 1.5443856914049516 2 76.571188004856396 7.5249090524173665 2 75.665547936508219 1 2 78.01994594368557 4.0789542690572747 2 80.433336201044611 1 2 84.162188609203 6.5535408110583049 2 94.315868315974683 5.5258933924782543 2 97.129407926940829 2.7556072828202645 2 1 6.1997117150357459 2 5.9155409847975573 6.317846056050306 2 9.5057533998223764 2.7781873215880806 2 13.1956148647141 2.7499908510728335 2 12.682207700798404 6.5057824494496908 2 16.910594211008448 3.7700854011561886 2 20.185579031033782 6.6568103557991334 2 25.102891257126636 3.5805367671711625 2 27.513701115991005 4.7528984716782556 2 28.845248964500453 7.319913397635216 2 30.256146747453435 3.6461668979738864 2 33.017342384667444 6.4138592250201647 2 37.875397974338838 4.7847981943298654 2 42.154207556765542 6.5742165679283442 2 44.140175199475991 6.7493103812879047 2 49.269954697747693 3.0795099433952875 2 57.652732061484187 8.191218567345345 2 63.138506897340299 6.1691280216849664 2 65.054912404009627 2.9375669421285497 2 66.894953100905042 2.2902934335266298 2 68.480535420690913 7.0581287470926002 2 70.432192013820242 6.6305549714734004 2 73.155471135625376 3.3976116146418556 2 75.067011265727075 8.9591507158709867 2 74.646342415669395 6.9933348926583516 2 78.457204504729589 1 2 81.289992108893216 6.6735057497526826 2 84.383028444004722 1 2 92.190985325636788 1 2 96.074294419126886 6.4412878719976527 2 1 2.9790558454623883 2 5.0780898809712687 2.5863553926110958 2 10.388603602892914 4.7208002811270182 2 9.8719987738282615 6.6509622538150213 2 14.363613327376113 1 2 14.497821281925091 5.7503675183338503 2 20.518530728224302 2.7651865873531438 2 26.897235625419871 1 2 26.969039267565339 6.6563986039980305 2 34.804980524471198 7.3197262911071599 2 31.082581149122806 1 2 32.087406105623607 2.8587035906579219 2 37.027587007175327 1 2 42.300309311374633 1 2 43.335988043037311 2.9007778784317915 2 48.361591876756762 1 2 56.755106799729838 2.7257711398232942 2 61.623883585871994 1 2 63.571266902082421 4.2645224516099365 2 68.458264430428258 3.3912917163431278 2 66.532037940352311 6.5909698897433415 2 70.102615323313529 2.7903022253368004 2 70.802242468136583 1 2 77.005031554197657 9.4412808850457139 2 75.080821411840972 2.8495054063241367 2 77.9903369159763 6.05870020664078 2 79.451888825377821 2.7285563105837705 2 86.119673790229783 6.9232425083247522 2 93.646103052084044 3.6910885262365372 2 96.255595295941546 1 2 </DataArray>
<DataArray Name="forces" NumberOfComponents="3" format="ascii" type="Float32">8.8698732205682706e-05 0.0030193468354959207 0.0 -0.0069160948994870901 0.0057274175413936663 0.0 -0.0067122455329961736 -0.0060529576195651642 0.0 -0.010355140625452529 -0.068213264808058144 0.0 -0.00059954138349321492 0.0076271845183095328 0.0 0.0063968323809916183 0.028233705984926225 0.0 -0.004493106904197134 0.013669158798585592 0.0 -0.012691860868626031 -0.0047632938246347832 0.0 0.011224785763223694 0.024604867034425833 0.0 -0.0027742687167854998 0.020938774653843861 0.0 0.056061671149316858 0.03019567175107761 0.0 -0.094691272663249837 0.11516489387348396 0.0 0.0035443196250532247 0.00044327424029754273 0.0 0.01076754792939323 0.011828453501243216 0.0 -0.0035167814458524319 0.00048729902784019479 0.0 -0.045117936375569725 0.011101253437451815 0.0 0.010642960787032241 0.0084492492586845762 0.0 -0.0023034954596958465 0.0093344759324967639 0.0 -0.033676970951529175 -0.031658596272820944 0.0 0.010903598709451089 -0.054419510341262661 0.0 0.012208185286482301 0.018618075817242809 0.0 -0.015320436694623848 -0.052144380683541686 0.0 0.076742939389600862 0.10245845914152116 0.0 0.0031139344127002044 0.015733026834066972 0.0 -0.09386803484253331 -0.026744508789011301 0.0 -0.015134880566338133 -0.025604559014595848 0.0 -0.14854959682446456 0.03738587391269671 0.0 -0.0056773281789618719 0.0039248565675203658 0.0 -0.015998697498323639 0.0043390017183545272 0.0 -0.0061805159511312217 0.010261239347183076 0.0 0.00030610088895666448 -0.0022099673307238981 0.0 0.000234829542113324 -0.00028011513647836685 0.0 -0.0047263734597026204 0.0042227002279688385 0.0 -0.012324780376754114 0.015255004532788618 0.0 0.00030215903348750506 -0.001803136370773532 0.0 -0.0003091438535972595 0.012957845630583015 0.0 -0.01061031736236745 -0.053312531293117291 0.0 0.047057098656414595 0.030741156247652571 0.0 -0.0011853992601822913 0.016476772918082892 0.0 -0.0077091483741221463 0.04269815025142229 0.0 0.015217422591755698 7.8453532968696116e-05 0.0 0.050691294888628932 -0.0095425683966941909 0.0 -0.028010839627443718 0.029835920017559182 0.0 0.0042063282326519347 0.011233082287884812 0.0 0.010921517770210009 -0.024109249484404106 0.0 0.0067095728053801406 0.00013540991153476452 0.0 0.030065961285389978 -0.016710548249169024 0.0 0.0093062078537132081 0.0072200452434262874 0.0 0.02393704687868976 0.010926501377677346 0.0 -0.014547081059116 0.062010245759812413 0.0 -0.011093193375212074 0.040827077766235023 0.0 -0.0096394780361737896 0.0092041581525777964 0.0 -0.038182445027821511 0.073060591382695314 0.0 -0.010965838330000633 0.058047938181287097 0.0 0.02138602118997833 -0.080503731179270926 0.0 0.10131444020442822 0.090018073152632008 0.0 -0.019174909539943601 -0.033573688313769973 0.0 0.0021639772696184891 0.013682806932717978 0.0 0.00087364410390220956 0.014218494312501197 0.0 -0.0019525787214966783 0.014170822219210004 0.0 -0.0032216232109565381 0.004124735798249202 0.0 -0.0021990585559836097 0.0073980327287003541 0.0 -0.0030852305599527239 0.0060529576195651642 0.0 0.0052527390352615326 0.011437044732445806 0.0 -0.0095884511865357569 0.0094640231500173599 0.0 -0.0041395954209542882 0.019819837946612968 0.0 0.048979461119835574 0.011153022538446057 0.0 -0.039471019897923877 0.081242741033669019 0.0 0.0092202401807091102 -0.018897880878034248 0.0 -0.009861132295460498 0.014323594713002801 0.0 -0.0017026245500977727 0.001699103956417427 0.0 0.0012695082432657295 -0.049768033870779355 0.0 -0.0017392834792423699 -0.001734335121970619 0.0 0.0043918925041398164 0.016837535112903264 0.0 0.0069431336886265106 0.00064643997450022927 0.0 -0.01500405181393508 0.00080348833865028771 0.0 0.00091496623919335557 0.0033028677115897434 0.0 -0.0059658027843744344 0.039828417076679785 0.0 -0.012002419762436402 -0.0033797561963957307 0.0 -0.061287127089006271 -0.052157551883483255 0.0 -0.016319333223692362 0.020184474809495308 0.0 0.0088230700993090876 0.045058174549210309 0.0 -0.1537068298890806 -0.096609238309526044 0.0 0.0081106985290317797 0.01363353551228242 0.0 -0.015489788881478509 -0.019662599054666052 0.0 0.0019926777982997796 -0.018632273126032987 0.0 -0.00047371791327842757 0.006756280512952623 0.0 -0.011240829116209633 -0.009287060144333904 0.0 0.01322983085577599 -0.047478438044888917 0.0 0.0048647259854797172 0.012816176606326141 0.0 -0.0022992112039696942 0.0024042067142498063 0.0 0.0030780014765486694 0.0023393397713361488 0.0 -0.0038476960138259606 0.00012889474717477675 0.0 -0.0002267940491974907 0.0012072068906933101 0.0 -0.0054556927610999806 -0.010947699580084963 0.0 -0.017954177645235412 0.017956682714282735 0.0 -0.0057905196927034632 0.0065543605239086217 0.0 0.003503077238176059 -0.11783736295568575 0.0 -0.0034239829050406265 0.053621089103928508 0.0 0.010498869908057172 0.012481199656095572 0.0 -0.026504380849383214 -0.016964864960779362 0.0 -0.0048051018659146906 -0.0014127759841700547 0.0 0.03426235784243619 -0.029455272034458115 0.0 0.010587069636258661 0.0 0.0 -0.0049495867223688997 0.00058586833716786451 0.0 0.0021317267903597781 0.0 0.0 -0.023157540863399235 0.029106285005134389 0.0 0.024115105229236843 -0.093614793948089303 0.0 -0.0054102968749739234 0.040690254163181561 0.0 0.072783956334430508 0.012595039972849838 0.0 -0.0019585743592211297 0.021097768100069546 0.0 -0.14235547727531769 0.08088114198635836 0.0 0.018097161567413762 -0.16585069029599514 0.0 0.0014467672295024347 0.0066059378809619172 0.0 0.060487971665838823 -0.0080353461600511759 0.0 0.14496902384988086 0.00061968231479742064 0.0 -0.01705001532457286 0.010798891789885903 0.0 -0.004267196565664347 0.016263391825253042 0.0 -0.0083490078134756951 0.010955522808379026 0.0 0.012850857148133485 -0.087403140343236041 0.0 </DataArray>
<DataArray Name="radii" format="ascii" type="Float32">1 1 1 1 1 1 1 1 1 1 1 1 1 1 1 1 1 1 1 1 1 1 1 1 1 1 1 1 1 1 1 1 1 1 1 1 1 1 1 1 1 1 1 1 1 1 1 1 1 1 1 1 1 1 1 1 1 1 1 1 1 1 1 1 1 1 1 1 1 1 1 1 1 1 1 1 1 1 1 1 1 1 1 1 1 1 1 1 1 1 1 1 1 1 1 1 1 1 1 1 1 1 1 1 1 1 1 1 1 1 1 1 1 1 1 1 1 1 1 1 </DataArray>
</PointData>
<CellData/>
</Piece>
</UnstructuredGrid>
</VTKFile>
