<?xml version="1.0" ?>
<VTKFile byte_order="LittleEndian" type="UnstructuredGrid" version="0.1">
<UnstructuredGrid>
<Piece NumberOfCells="0" NumberOfPoints="60">
<Points>
<DataArray NumberOfComponents="3" format="ascii" type="Float32">1.4 4.168419791503613 2 6.4209593101763325 3.963192520089915 2 10.251669381258221 1.4 2 12.577456927484301 1.4 2 12.70370598832586 4.0202168245077781 2 16.312777529124787 3.8847987759890477 2 20.714399325284177 3.8389027183236721 2 25.950767691319559 3.8830153566263741 2 28.548037070433924 3.9636041480736748 2 30.041750239381571 6.1844177646073897 2 31.068027298907833 3.7469982779648121 2 33.609647218835022 3.9104888864021952 2 38.781816240967146 3.9862582105361333 2 41.647132282833184 4.005450289780395 2 44.259218257521596 4.02346600878984 2 49.279425758806539 3.9795194024932172 2 57.497322495280088 4.8457036745140041 2 62.298159065954373 4.3038346395146219 2 64.560193634835628 1.4 2 66.802826271312796 1.5191065348058899 2 69.322974445863693 6.2247955931005805 2 70.751638748155059 3.8987533199686464 2 73.269067478380776 3.1550263552669433 2 73.418528857284272 6.8792297069191317 2 75.478807263578787 4.0602780292126388 2 77.375621426600972 1.4 2 80.126665587038602 4.2733458475546779 2 83.900517265792885 1.4 2 92.444499260001294 1.4 2 96.217471835557518 4.0836021276528571 2 1.4 1.4 2 5.7070049866747707 1.4 2 9.0300819989650698 3.8436624889291329 2 10.814283449105192 5.8010112681607273 2 14.945753162471313 1.4 2 14.545194134666207 6.0025921146510255 2 19.666410987641605 1.4 2 26.961506173286693 1.4 2 27.258129488245164 6.2990042830989124 2 32.607065813704452 7.2939201834377823 2 30.297570461661522 1.4 2 32.542241303954938 1.4 2 36.974688696663314 1.4 2 41.280339913576249 1.4 2 43.44136653163811 1.4 2 47.819577466676321 1.4 2 57.843103592384182 1.4 2 62.341248217437204 1.4 2 64.733009083532167 4.015120310138566 2 68.238177020024679 3.7630042534458683 2 66.611251968897278 5.8995065084780425 2 69.52604207258446 1.4784059751421166 2 71.787045433857926 1.4 2 76.441167611410847 6.5555137719576431 2 75.114029745073708 1.4 2 77.773071725824764 4.1052464667837683 2 79.58523675444988 1.4 2 84.699703889038346 4.7768269619544803 2 93.838219155101385 3.9633573941661058 2 96.586671591418295 1.4 2 </DataArray>
</Points>
<Cells>
<DataArray Name="connectivity" format="ascii" type="Int32">0</DataArray>
<DataArray Name="offsets" format="ascii" type="Int32">0</DataArray>
<DataArray Name="types" format="ascii" type="UInt8">1</DataArray>
</Cells>
<PointData>
<DataArray Name="Points" NumberOfComponents="3" format="ascii" type="Float32">1.4 4.168419791503613 2 6.4209593101763325 3.963192520089915 2 10.251669381258221 1.4 2 12.577456927484301 1.4 2 12.70370598832586 4.0202168245077781 2 16.312777529124787 3.8847987759890477 2 20.714399325284177 3.8389027183236721 2 25.950767691319559 3.8830153566263741 2 28.548037070433924 3.9636041480736748 2 30.041750239381571 6.1844177646073897 2 31.068027298907833 3.7469982779648121 2 33.609647218835022 3.9104888864021952 2 38.781816240967146 3.9862582105361333 2 41.647132282833184 4.005450289780395 2 44.259218257521596 4.02346600878984 2 49.279425758806539 3.9795194024932172 2 57.497322495280088 4.8457036745140041 2 62.298159065954373 4.3038346395146219 2 64.560193634835628 1.4 2 66.802826271312796 1.5191065348058899 2 69.322974445863693 6.2247955931005805 2 70.751638748155059 3.8987533199686464 2 73.269067478380776 3.1550263552669433 2 73.418528857284272 6.8792297069191317 2 75.478807263578787 4.0602780292126388 2 77.375621426600972 1.4 2 80.126665587038602 4.2733458475546779 2 83.900517265792885 1.4 2 92.444499260001294 1.4 2 96.217471835557518 4.0836021276528571 2 1.4 1.4 2 5.7070049866747707 1.4 2 9.0300819989650698 3.8436624889291329 2 10.814283449105192 5.8010112681607273 2 14.945753162471313 1.4 2 14.545194134666207 6.0025921146510255 2 19.666410987641605 1.4 2 26.961506173286693 1.4 2 27.258129488245164 6.2990042830989124 2 32.607065813704452 7.2939201834377823 2 30.297570461661522 1.4 2 32.542241303954938 1.4 2 36.974688696663314 1.4 2 41.280339913576249 1.4 2 43.44136653163811 1.4 2 47.819577466676321 1.4 2 57.843103592384182 1.4 2 62.341248217437204 1.4 2 64.733009083532167 4.015120310138566 2 68.238177020024679 3.7630042534458683 2 66.611251968897278 5.8995065084780425 2 69.52604207258446 1.4784059751421166 2 71.787045433857926 1.4 2 76.441167611410847 6.5555137719576431 2 75.114029745073708 1.4 2 77.773071725824764 4.1052464667837683 2 79.58523675444988 1.4 2 84.699703889038346 4.7768269619544803 2 93.838219155101385 3.9633573941661058 2 96.586671591418295 1.4 2 </DataArray>
<DataArray Name="forces" NumberOfComponents="3" format="ascii" type="Float32">-0.30775735087098965 0.030682536588346077 0.0 0.076306668632750874 0.043261599538479772 0.0 0.037888874675949244 -0.059784598947050932 0.0 0.037833183758718691 -0.10077306981660777 0.0 -0.056358370545679312 0.060482212178081085 0.0 0.015863722536344965 0.055112765267335058 0.0 -0.017139094638228131 0.054920886786977326 0.0 0.0063045283285779082 0.06315763891875921 0.0 0.0011685858407014752 0.1004477278339158 0.0 0.0045274439228501738 0.10599313216062366 0.0 -0.015193289591854231 0.062584569992851044 0.0 -0.0011839228754848205 0.04438242693070598 0.0 0.10295641562454047 0.088782966329465016 0.0 -0.11013793540781379 0.081708274328767289 0.0 -0.070594839816796706 0.053913936650758158 0.0 -0.00043683260747807637 0.059979421917631004 0.0 0.010530064843803366 0.26766110745016025 0.0 -0.013122261165992521 0.075823847975601266 0.0 0.016597220132781733 -0.21195030141164009 0.0 0.023491750733078642 0.090098034275167299 0.0 0.028771550218119002 0.098980927753529402 0.0 0.0033242980592885357 0.078388327222113724 0.0 -0.025742065131344027 0.11854341247466435 0.0 -0.03093879688925176 0.14639686918058015 0.0 -0.012845381178978044 0.046502051035363937 0.0 -0.061701266819973344 -0.067012902363523738 0.0 0.02726414692113488 0.092502706522053377 0.0 -0.034119417932856777 0.0 0.0 -0.019170081589353849 -0.009890149430000118 0.0 0.0073927399523587844 0.062802198234288897 0.0 -0.65528911535904477 -0.032022462811621022 0.0 0.028771036659878568 -0.13764516506095895 0.0 0.10667662915626058 0.052378401464049942 0.0 0.012345172689648812 0.20351193691725958 0.0 0.03265863997400141 -0.11731608449865731 0.0 -0.016845805112002753 0.044768573492160034 0.0 0.024606502101869487 -0.13455831055776407 0.0 -0.036944996930169949 -0.10741788961945324 0.0 -0.015166836692052502 0.094642595193527204 0.0 0.024374169606778569 0.083518523766535568 0.0 -0.049498199704154922 -0.24808844823582421 0.0 -0.035702776599192854 -0.069726618721140415 0.0 -0.021262194401799661 0.0 0.0 0.0058573789313125513 -0.17176525438671322 0.0 0.0084146024830830113 -0.049813822223348757 0.0 0.010752336623867258 -0.0056148366301424319 0.0 -0.082572325946227709 -0.36422972747130039 0.0 -0.003701574714547462 0.0 0.0 0.015668572073710696 0.072115659073571703 0.0 0.00015409788255163481 0.10795615664887323 0.0 0.0099309071071042795 0.12026447419633121 0.0 -0.0070235131616511737 0.10255976258915397 0.0 -0.0031617312514049534 -0.39448579939647976 0.0 0.010844473325534357 0.055262173657383125 0.0 -0.069378484942959229 -0.092596004220811698 0.0 -0.0010562944734663357 0.034247253368379957 0.0 -0.053497382365222279 0.0 0.0 0.009418685238463731 0.30281393418004016 0.0 0.016873938567152573 0.060493418268803709 0.0 -0.015678569070592618 -0.094286992734873121 0.0 </DataArray>
<DataArray Name="radii" format="ascii" type="Float32">1.4 1.4 1.4 1.4 1.32 1.4 1.4 1.4 1.3199999999999998 1.4 1.32 1.4 1.4 1.4 1.4 1.4 1.4 1.4 1.4 1.4 1.4 1.4 1.4 1.4 1.32 1.4 1.4 1.4 1.4 1.4 1.4 1.4 1.4 1.4 1.4 1.4 1.4 1.4 1.4 1.4 1.4 1.4 1.4 1.4 1.4 1.4 1.4 1.4 1.4 1.32 1.4 1.4 1.4 1.4 1.4 1.4 1.4 1.4 1.4 1.4 </DataArray>
</PointData>
<CellData/>
</Piece>
</UnstructuredGrid>
</VTKFile>
