<?xml version="1.0" ?>
<VTKFile byte_order="LittleEndian" type="UnstructuredGrid" version="0.1">
<UnstructuredGrid>
<Piece NumberOfCells="0" NumberOfPoints="10">
<Points>
<DataArray NumberOfComponents="3" format="ascii" type="Float32">28.71439594824972 0.7 2 64.783021494401865 5.500630822836948 2 68.100665666078172 0.7 2 70.91907687259291 5.3022445693856728 2 72.260609078595166 4.2369556289942683 2 73.733005131703095 0.7 2 14.499852004073679 3.0183674782888659 2 32.416330003788183 4.7309101386181442 2 73.897840249028363 4.2992245057217779 2 66.429282597777501 3.2239979721086396 2 </DataArray>
</Points>
<Cells>
<DataArray Name="connectivity" format="ascii" type="Int32">0</DataArray>
<DataArray Name="offsets" format="ascii" type="Int32">0</DataArray>
<DataArray Name="types" format="ascii" type="UInt8">1</DataArray>
</Cells>
<PointData>
<DataArray Name="Points" NumberOfComponents="3" format="ascii" type="Float32">28.71439594824972 0.7 2 64.783021494401865 5.500630822836948 2 68.100665666078172 0.7 2 70.91907687259291 5.3022445693856728 2 72.260609078595166 4.2369556289942683 2 73.733005131703095 0.7 2 14.499852004073679 3.0183674782888659 2 32.416330003788183 4.7309101386181442 2 73.897840249028363 4.2992245057217779 2 66.429282597777501 3.2239979721086396 2 </DataArray>
<DataArray Name="forces" NumberOfComponents="3" format="ascii" type="Float32">-0.032710246373595209 -0.11091491775985954 0.0 -0.0064491595339378613 0.0057781311304626517 0.0 0.011226207855423442 -0.20045201505324214 0.0 0.004215874971562051 0.02076256492861837 0.0 0.017955389676566264 0.0081886618592176049 0.0 -0.075164320603846549 -0.084873187916616494 0.0 0.006498210068393408 0.013105194763439784 0.0 -0.0091436659838848473 0.012271363945848827 0.0 0.017191323947856704 0.059574331203643881 0.0 0.015118747853869512 0.037409687751499027 0.0 </DataArray>
<DataArray Name="radii" format="ascii" type="Float32">0.7 0.7 0.7 0.7 0.7 0.7 0.7 0.7 0.7 0.7 </DataArray>
</PointData>
<CellData/>
</Piece>
</UnstructuredGrid>
</VTKFile>
