<?xml version="1.0" ?>
<VTKFile byte_order="LittleEndian" type="UnstructuredGrid" version="0.1">
<UnstructuredGrid>
<Piece NumberOfCells="0" NumberOfPoints="76">
<Points>
<DataArray NumberOfComponents="3" format="ascii" type="Float32">4.2562306233791762 5.2505279387211399 2 8.232558523526226 1.2 2 18.140948115328943 6.9679127691292955 2 21.23163277785704 1.2 2 25.12340270340497 1.2 2 36.45787509649842 6.8460452785141843 2 40.571809155483514 8.5081262165560112 2 45.15370659436406 3.2536658490573314 2 50.140784125421249 1.2 2 51.428149822598179 4.986984471515477 2 55.622724130059353 6.714969768712451 2 57.23982085665245 5.1009395097048369 2 59.550661587601567 5.2515559275128396 2 81.732122091547311 2.9999091851785211 2 87.386897622353146 5.5825196729813849 2 89.619067557413146 5.4048679899543091 2 90.847111097667849 7.3629132057297859 2 93.784651038802238 7.9002773494435639 2 98.8 1.2 2 3.7541439280274065 1.2 2 7.7932650965037125 7.0559141952744229 2 18.125502296052122 2.9823649446802425 2 22.686713931958259 7.6578624958418979 2 23.535709709654348 5.4941306591137149 2 35.623805168909605 1.2 2 39.903000826661206 1.2 2 46.155648546802418 5.2585752044319918 2 49.373674913673796 8.1638275393890272 2 52.205273571170061 1.2 2 54.049736317562648 1.3870121984248569 2 55.704519778067727 9.470563874332889 2 59.549793922315835 1.2 2 81.491301793796595 5.0610491437307141 2 85.617698034273204 3.287749592249837 2 87.575598265762309 3.3180687517053906 2 90.514984910308016 1.2 2 95.29937603244322 3.3157050598496012 2 98.8 5.6983527349838834 2 3.3578470915798531 7.3626565034702347 2 7.3035707434992077 3.1294445172906822 2 18.661997522688491 9.1886185690563948 2 22.416969563282862 3.3186204170842553 2 23.216639354716943 1.2 2 35.70268842021693 4.9048132641428115 2 38.401155242928034 7.7508977404824719 2 46.205785956329997 1.2 2 51.196870991128222 2.9858005968551034 2 51.475739992769398 7.1891900215298783 2 53.421649178845762 5.8831160790921935 2 55.052790908600066 4.4696837588786407 2 58.504726395245747 3.2507796743771569 2 82.588213922394573 1.2 2 85.298942398420508 5.5425093847026758 2 88.535638975762069 7.5720905954784969 2 92.124908760269918 5.4556720759134478 2 95.722240374753085 9.5817378833901365 2 98.8 3.5219685756093519 2 3.1273965380888282 3.2658027249932537 2 6.885068167936681 9.2034298409372557 2 16.853625245243084 1.2 2 21.259756862318628 9.5755356736484689 2 21.390450058314453 5.3557189467254771 2 34.574872075915223 3.0482099839573258 2 38.905955313905203 3.1715592135565926 2 47.434761283472866 6.976503824493423 2 51.665545545739946 9.4789451890464331 2 53.210351229884516 3.4612284772254438 2 55.798528931328093 1.2 2 53.749545665272613 8.1557653969607848 2 60.480688119096051 3.2200437351289053 2 83.311733151973897 5.5561835867658305 2 86.536743796430599 1.2 2 88.499262618272681 1.2 2 89.518635183753716 3.1932088125443827 2 94.488701925252641 1.2 2 98.398176008999485 7.9190923747044693 2 </DataArray>
</Points>
<Cells>
<DataArray Name="connectivity" format="ascii" type="Int32">0</DataArray>
<DataArray Name="offsets" format="ascii" type="Int32">0</DataArray>
<DataArray Name="types" format="ascii" type="UInt8">1</DataArray>
</Cells>
<PointData>
<DataArray Name="Points" NumberOfComponents="3" format="ascii" type="Float32">4.2562306233791762 5.2505279387211399 2 8.232558523526226 1.2 2 18.140948115328943 6.9679127691292955 2 21.23163277785704 1.2 2 25.12340270340497 1.2 2 36.45787509649842 6.8460452785141843 2 40.571809155483514 8.5081262165560112 2 45.15370659436406 3.2536658490573314 2 50.140784125421249 1.2 2 51.428149822598179 4.986984471515477 2 55.622724130059353 6.714969768712451 2 57.23982085665245 5.1009395097048369 2 59.550661587601567 5.2515559275128396 2 81.732122091547311 2.9999091851785211 2 87.386897622353146 5.5825196729813849 2 89.619067557413146 5.4048679899543091 2 90.847111097667849 7.3629132057297859 2 93.784651038802238 7.9002773494435639 2 98.8 1.2 2 3.7541439280274065 1.2 2 7.7932650965037125 7.0559141952744229 2 18.125502296052122 2.9823649446802425 2 22.686713931958259 7.6578624958418979 2 23.535709709654348 5.4941306591137149 2 35.623805168909605 1.2 2 39.903000826661206 1.2 2 46.155648546802418 5.2585752044319918 2 49.373674913673796 8.1638275393890272 2 52.205273571170061 1.2 2 54.049736317562648 1.3870121984248569 2 55.704519778067727 9.470563874332889 2 59.549793922315835 1.2 2 81.491301793796595 5.0610491437307141 2 85.617698034273204 3.287749592249837 2 87.575598265762309 3.3180687517053906 2 90.514984910308016 1.2 2 95.29937603244322 3.3157050598496012 2 98.8 5.6983527349838834 2 3.3578470915798531 7.3626565034702347 2 7.3035707434992077 3.1294445172906822 2 18.661997522688491 9.1886185690563948 2 22.416969563282862 3.3186204170842553 2 23.216639354716943 1.2 2 35.70268842021693 4.9048132641428115 2 38.401155242928034 7.7508977404824719 2 46.205785956329997 1.2 2 51.196870991128222 2.9858005968551034 2 51.475739992769398 7.1891900215298783 2 53.421649178845762 5.8831160790921935 2 55.052790908600066 4.4696837588786407 2 58.504726395245747 3.2507796743771569 2 82.588213922394573 1.2 2 85.298942398420508 5.5425093847026758 2 88.535638975762069 7.5720905954784969 2 92.124908760269918 5.4556720759134478 2 95.722240374753085 9.5817378833901365 2 98.8 3.5219685756093519 2 3.1273965380888282 3.2658027249932537 2 6.885068167936681 9.2034298409372557 2 16.853625245243084 1.2 2 21.259756862318628 9.5755356736484689 2 21.390450058314453 5.3557189467254771 2 34.574872075915223 3.0482099839573258 2 38.905955313905203 3.1715592135565926 2 47.434761283472866 6.976503824493423 2 51.665545545739946 9.4789451890464331 2 53.210351229884516 3.4612284772254438 2 55.798528931328093 1.2 2 53.749545665272613 8.1557653969607848 2 60.480688119096051 3.2200437351289053 2 83.311733151973897 5.5561835867658305 2 86.536743796430599 1.2 2 88.499262618272681 1.2 2 89.518635183753716 3.1932088125443827 2 94.488701925252641 1.2 2 98.398176008999485 7.9190923747044693 2 </DataArray>
<DataArray Name="forces" NumberOfComponents="3" format="ascii" type="Float32">-0.013529660954087704 0.10451592987246669 0.0 -0.01935769196397627 -0.45633900589950738 0.0 0.0086785851323219476 0.11367800482539456 0.0 -0.038047385901969211 -0.19069884989604233 0.0 -0.015925075667766797 -0.09521218138800748 0.0 0.033042054488201647 0.1090297863496629 0.0 0.057697516517659496 0.13497452195447726 0.0 -0.019347483253152609 0.047343614725559431 0.0 -0.027219261923735694 -0.30137776888121492 0.0 -0.01673303057416238 0.068295775617958229 0.0 0.012992404134719891 0.16025752247202102 0.0 0.018833367258198244 0.0966383838358853 0.0 0.039425213543947693 0.068670116816040849 0.0 0.010079574958400173 0.024644193731483716 0.0 0.087558390830452804 0.060519245354221374 0.0 0.12262266596889311 0.10176110243745663 0.0 0.068433986266046826 0.16061547159924905 0.0 -0.021631743647876379 0.016727369632916416 0.0 0.15571138019322261 -0.10236015199740371 0.0 -0.044945761538645532 -0.23991037920228539 0.0 0.026164020853099698 0.085213592520683848 0.0 -0.036054592816542497 0.074517215361974365 0.0 0.030924043200813406 0.068558004103415726 0.0 0.0079379159498302043 0.055125035680903073 0.0 0.048098593823878377 -0.37325469068589928 0.0 0.0098155028848671833 -0.37712612692535841 0.0 0.052494947213373999 0.05765457789253986 0.0 0.034816573706058271 0.10309633437851007 0.0 -0.035785553214846666 -0.3601537650202713 0.0 -0.03286230581043581 -0.028192857750068939 0.0 0.006180201308409735 0.027157434093473803 0.0 -0.02160165084895016 -0.24772175718621092 0.0 0.015172715075765786 0.035756725504241277 0.0 -0.0064967030275636592 0.029661678735362823 0.0 -0.018084961840994451 0.028122846405620489 0.0 0.0084221986208235095 -0.26316111477542969 0.0 -0.0092528502165058271 0.068445502449970483 0.0 0.19669660196221661 0.13046553440250053 0.0 -0.0064161376772869649 0.10445990319815093 0.0 -0.026712397255598264 0.039688444011965036 0.0 0.027299562845122638 0.11694706570725091 0.0 -0.032338951996354684 0.024670960682162707 0.0 -0.031077713718174506 -0.12812553998711165 0.0 0.016795294709234992 0.089315119005228205 0.0 0.031458539507714281 0.17281789755567473 0.0 -0.035646931978389973 -0.15246078539492172 0.0 0.013627790339215962 0.041682694014089486 0.0 0.025690473127512173 0.092562293727309439 0.0 0.0012322054392946997 0.095116539185903279 0.0 0.021656686396952451 0.16637355715468025 0.0 -0.046993718169548004 0.053112690030116011 0.0 0.039669534094633307 -0.40201802800947495 0.0 0.055217178559916494 0.052661186326559459 0.0 0.044832475605582185 0.093536692134341834 0.0 -0.026675207607855692 0.050202693408858717 0.0 -0.014412506378192734 0.089985691585013614 0.0 0.67173146549866847 0.088428405915921382 0.0 0.00707359281509784 0.10000067359749626 0.0 -0.0081386677260556657 0.094550069524923605 0.0 0.012407766386927421 -0.27513775251149453 0.0 0.015424805648499783 0.058515195366769572 0.0 -0.0054681394693290863 0.040769571874002639 0.0 0.028996197454242534 0.059778980446831359 0.0 -0.00057586575544020524 0.039330609346638304 0.0 -0.054420674697419888 0.2113451105374613 0.0 0.0086939510200149672 0.10342824909104663 0.0 0.039848650926061435 0.047897430886835818 0.0 -0.0097068202736891318 -0.49463501479199473 0.0 -0.053122130994503816 0.10104449157893203 0.0 -0.051933540111503154 -0.016461768726092424 0.0 0.025002570743558605 0.13218318049412539 0.0 0.015161721990712251 -0.14827693750945034 0.0 0.016041571847404373 -0.23178243118216971 0.0 -0.023675857978056034 0.060770131140259781 0.0 0.029339322475569585 -0.13028309288031584 0.0 -0.016074518915474827 0.14619784265298669 0.0 </DataArray>
<DataArray Name="radii" format="ascii" type="Float32">1.2 1.2 1.2 1.2 1.2 1.2 1.2 1.2 1.2 1.2 1.2 1.2 1.2 1.2 1.2 1.2 1.2 1.2 1.2 1.2 1.2 1.2 1.2 1.2 1.2 1.2 1.2 1.2 1.2 1.2 1.2 1.2 1.2 1.2 1.2 1.2 1.2 1.2 1.2 1.2 1.2 1.2 1.2 1.2 1.2 1.2 1.2 1.2 1.2 1.2 1.2 1.2 1.2 1.2 1.2 1.2 1.2 1.2 1.2 1.2 1.2 1.2 1.2 1.2 1.2 1.2 1.2 1.2 1.2 1.2 1.2 1.2 1.2 1.2 1.2 1.2 </DataArray>
</PointData>
<CellData/>
</Piece>
</UnstructuredGrid>
</VTKFile>
