<?xml version="1.0" ?>
<VTKFile byte_order="LittleEndian" type="UnstructuredGrid" version="0.1">
<UnstructuredGrid>
<Piece NumberOfCells="0" NumberOfPoints="19">
<Points>
<DataArray NumberOfComponents="3" format="ascii" type="Float32">3.311458319561519 1.2 2 7.5213020113781246 1.2 2 17.872802775481308 1.2 2 21.937779181095745 1.2 2 23.958306920722126 1.2 2 35.998032344175002 1.2 2 39.999457638794958 1.2 2 45.999942729750288 1.2 2 50.0 1.2 2 52.000021525819271 1.2 2 54.000057270249712 1.2 2 56.000127978662903 1.2 2 60.000542361205049 1.2 2 82.127197224518696 1.2 2 86.233184215474139 1.2 2 88.303698188091317 1.2 2 90.385862247126511 1.2 2 94.580425099459873 1.2 2 98.8 1.2 2 </DataArray>
</Points>
<Cells>
<DataArray Name="connectivity" format="ascii" type="Int32">0</DataArray>
<DataArray Name="offsets" format="ascii" type="Int32">0</DataArray>
<DataArray Name="types" format="ascii" type="UInt8">1</DataArray>
</Cells>
<PointData>
<DataArray Name="Points" NumberOfComponents="3" format="ascii" type="Float32">3.311458319561519 1.2 2 7.5213020113781246 1.2 2 17.872802775481308 1.2 2 21.937779181095745 1.2 2 23.958306920722126 1.2 2 35.998032344175002 1.2 2 39.999457638794958 1.2 2 45.999942729750288 1.2 2 50.0 1.2 2 52.000021525819271 1.2 2 54.000057270249712 1.2 2 56.000127978662903 1.2 2 60.000542361205049 1.2 2 82.127197224518696 1.2 2 86.233184215474139 1.2 2 88.303698188091317 1.2 2 90.385862247126511 1.2 2 94.580425099459873 1.2 2 98.8 1.2 2 </DataArray>
<DataArray Name="forces" NumberOfComponents="3" format="ascii" type="Float32">-0.0034495503589466736 0.0 0.0 -0.0091548447401947897 0.0 0.0 -0.010455264441850076 0.0 0.0 -0.0074640774082084249 0.0 0.0 -0.0059107290558202408 0.0 0.0 -0.00062519867284294151 0.0 0.0 -0.00021461445344783669 0.0 0.0 -3.0246407426659516e-05 0.0 0.0 0.0 0.0 0.0 1.2147211144508674e-05 0.0 0.0 3.0246407426659516e-05 0.0 0.0 6.1901140000486521e-05 0.0 0.0 0.00021461445344783669 0.0 0.0 0.010455264441858958 0.0 0.0 0.012089057612030274 0.0 0.0 0.011933815303535766 0.0 0.0 0.010963303085446796 0.0 0.0 0.0065893130953469381 0.0 0.0 0.28734117362791656 0.0 0.0 </DataArray>
<DataArray Name="radii" format="ascii" type="Float32">1.2 1.2 1.2 1.2 1.2 1.2 1.2 1.2 1.2 1.2 1.2 1.2 1.2 1.2 1.2 1.2 1.2 1.2 1.2 </DataArray>
</PointData>
<CellData/>
</Piece>
</UnstructuredGrid>
</VTKFile>
