<?xml version="1.0" ?>
<VTKFile byte_order="LittleEndian" type="UnstructuredGrid" version="0.1">
<UnstructuredGrid>
<Piece NumberOfCells="0" NumberOfPoints="179">
<Points>
<DataArray NumberOfComponents="3" format="ascii" type="Float32">6.0650409742309686 3.0510971796182229 2 19.254729713135802 12.030874067036674 2 21.152853596867409 1.4 2 40.662828206503285 16.55604309748653 2 46.064072621491626 6.5254953170068353 2 51.163798789061644 2.5677139694767286 2 54.276387224925934 11.08939303198545 2 57.452464235162161 7.9542086045175697 2 84.561473090160646 5.3363237289184218 2 86.753427572335028 10.880501371196392 2 90.865892345063273 9.2818423844923839 2 91.184265348247806 13.918534226204075 2 92.754123014691046 14.632117542371285 2 98.8 2.2206595696558726 2 22.312446077735274 14.225151166666381 2 23.345756015662925 9.4361455650836756 2 46.335434983943635 7.4817552482059195 2 47.340885970393643 14.311009766233507 2 51.998590485265147 4.248963290477751 2 53.638786976539826 2.3877014349374135 2 53.887718338089634 17.84328278029184 2 83.543261006782075 8.2422784602582801 2 87.140174094940235 5.4179401406841095 2 90.604976770682327 1 2 98.8 9.085407793602668 2 3.18003671467407 14.828143562080879 2 19.059900687120326 15.922950889170446 2 38.282490638187689 13.699488868617461 2 47.279734935257451 1 2 52.098532305861134 5.9096598516492014 2 51.139800512416912 11.941296045632626 2 52.057206245775973 10.595257682511546 2 55.280853529247423 7.4330844768936162 2 57.156463376847249 6.2431034707979904 2 85.623069336617419 9.9282812989956017 2 89.651211527918861 15.492632823679518 2 91.894510303959848 10.649892301089192 2 94.055568499867135 15.904705377995413 2 98.8 6.8854372508404831 2 6.297951770908421 16.834791267161986 2 22.273511393662027 17.850353651484067 2 36.229339092402448 6.3205806062311218 2 39.415540319245572 6.5535020988446764 2 46.779080924954741 13.040566724153379 2 51.264848765213095 15.809040807041582 2 53.093541854359586 4.2443884721344336 2 52.331437981301313 12.871720148493075 2 57.987033690785651 5.3154189131439882 2 84.197413672858829 12.954933507119071 2 86.416536657278428 1.7898693779068546 2 89.181309954291621 3.875760181155866 2 89.850204343942337 4.7839813286335415 2 98.8 14.236100997101106 2 37.55932750244753 11.283512888294863 2 42.789813088093787 17.185508032489377 2 51.176554019053462 8.4967367985255677 2 55.632309782463743 10.621763886321737 2 58.462445672724705 8.1007680009784 2 89.337980311090504 9.1167894642976837 2 90.647564601253535 10.732631033855684 2 91.351810288458964 15.993997992852997 2 93.648076607418176 11.348205439914887 2 98.8 3.1091643085790297 2 7.3796532175206124 13.85493124164322 2 18.954049128735058 3.4800541653036978 2 24.33044442607715 14.535744656577132 2 22.906170338414547 10.960795195403518 2 35.197754314065953 2.7888721714355174 2 49.230640523605253 13.94936589698383 2 51.630242585714726 1.2 2 53.612040166050775 1.2 2 56.109419818892853 15.488344178972753 2 57.961587210081682 2.4900469195574049 2 86.233474068184108 6.6398347159698412 2 98.8 10.412126698808095 2 3.6608566210160909 10.717120065810921 2 5.7016998524478222 4.3337765189862072 2 17.737436219004234 17.702906211343034 2 22.181251537016308 8.5481617206643694 2 21.877121607156049 1.4 2 36.877669908946949 9.4229164648952271 2 38.778773707019788 17.579301819865279 2 50.747426412422271 10.328689429137583 2 52.829650314799068 7.6127952172548943 2 53.999915870381408 9.1251459689280416 2 57.651522184886026 4.2993562897367763 2 87.691498896830851 7.5299871521250159 2 88.055529636719257 12.199960923746293 2 91.902048840432059 8.712506446300452 2 98.651194012696578 16.040549966556981 2 98.8 4.9361861274109273 2 8.1322054067369951 16.465866391596339 2 20.030372861542645 17.801430827743484 2 21.815206832047526 9.968364234833162 2 50.308218923073035 17.328170609476384 2 54.29830098743907 5.7760743493555307 2 55.095487457757102 14.316655355596803 2 83.843652363481638 10.098718924358911 2 87.476118853134381 1.2 2 89.702207447876148 1.2 2 96.945303605092235 14.35609443694859 2 18.125776649882688 13.72491862500136 2 41.737298294460359 15.112586438442635 2 54.634462398098471 12.381402991849031 2 55.759484286075086 8.4648173770655539 2 87.973515969195958 10.55799623764176 2 89.805356126231572 8.0611415970773166 2 90.746728344767718 12.360555417072748 2 93.43073262987609 13.281666161369687 2 98.8 1.2 2 20.934205037770578 14.064529550420689 2 48.960430276348646 15.65923141912258 2 50.850357702716217 3.9014296492830938 2 54.157290552052871 15.961159310600603 2 84.46885382033048 8.2597285407241401 2 88.712116941510615 5.0711159005704918 2 98.8 8.0140132271901567 2 3.2855139419611823 16.994051752251075 2 17.597664662414825 15.483505902264017 2 38.666830035943185 12.270220963471553 2 49.840128745220326 12.537824067481095 2 53.081664155445338 9.7562293606026635 2 53.822569172092635 7.8360341227953079 2 87.221268248006822 9.3805330153826922 2 89.31197503240638 13.847125291008917 2 92.293121739263555 12.269283822193378 2 94.920856576812426 17.811301444575793 2 98.8 5.8957732403099543 2 4.897071382431637 15.552817389651059 2 22.692998568998277 15.934378390027758 2 52.78804620083443 14.965695350171305 2 53.124030266359782 5.6737507970477177 2 53.055508259952809 11.575100202081137 2 85.363695738823907 12.87792586383487 2 89.265630021097323 2.8635477131583356 2 88.663647916447133 6.2932025908133324 2 98.8 12.072098454333135 2 36.817632861496783 12.39222164713108 2 43.486951371657305 15.298013896914926 2 50.142207446881166 2.1647332840464251 2 51.840175540085241 7.0523988176519312 2 55.943958962962576 13.126381331792544 2 56.812762418955892 8.9438466588634409 2 58.00778562701494 6.8056594835085074 2 89.257044398380401 10.51282439440689 2 89.386222046222798 12.179069145009704 2 92.620973655253508 17.472322953607989 2 92.944686392774585 10.030062224292582 2 24.536456346065883 16.12253980456412 2 51.061536060067304 14.00352848696504 2 52.430468184762717 2.8364184279714388 2 52.635730064152085 1.2 2 56.165604245406783 17.618441303909719 2 83.126715122788838 9.4144104267943582 2 86.445721730021305 8.1425055431234323 2 87.70115016374605 4.5344054035480283 2 97.905459503833939 12.9347633297262 2 15.832813775661764 16.777655284778167 2 36.446512320635208 10.588161070561842 2 39.108185927009103 15.328817367620349 2 51.951532196872584 8.9515420091152471 2 55.180921555961852 9.5793046202890366 2 87.428330647199147 6.5147328647821894 2 87.424505206684643 13.352939276913389 2 90.957559671763761 7.5593317428378892 2 97.479984453433232 17.872732440447411 2 98.8 3.9839830239778111 2 8.3364663882179446 18.544439512405731 2 20.842834312911187 15.878120990465616 2 45.372916178309964 15.109840360463611 2 48.181321426202658 17.766840187454491 2 54.303813515441725 6.7826428873661184 2 53.670366839818143 13.61414491939526 2 84.911023896707889 10.843804101883787 2 88.550368993074571 1.2 2 88.252965542645967 2.2513650414350304 2 88.249262387094035 8.5648520018299497 2 96.297218347531356 16.078818583613305 2 6.7196978056841452 14.90934524178839 2 </DataArray>
</Points>
<Cells>
<DataArray Name="connectivity" format="ascii" type="Int32">0</DataArray>
<DataArray Name="offsets" format="ascii" type="Int32">0</DataArray>
<DataArray Name="types" format="ascii" type="UInt8">1</DataArray>
</Cells>
<PointData>
<DataArray Name="Points" NumberOfComponents="3" format="ascii" type="Float32">6.0650409742309686 3.0510971796182229 2 19.254729713135802 12.030874067036674 2 21.152853596867409 1.4 2 40.662828206503285 16.55604309748653 2 46.064072621491626 6.5254953170068353 2 51.163798789061644 2.5677139694767286 2 54.276387224925934 11.08939303198545 2 57.452464235162161 7.9542086045175697 2 84.561473090160646 5.3363237289184218 2 86.753427572335028 10.880501371196392 2 90.865892345063273 9.2818423844923839 2 91.184265348247806 13.918534226204075 2 92.754123014691046 14.632117542371285 2 98.8 2.2206595696558726 2 22.312446077735274 14.225151166666381 2 23.345756015662925 9.4361455650836756 2 46.335434983943635 7.4817552482059195 2 47.340885970393643 14.311009766233507 2 51.998590485265147 4.248963290477751 2 53.638786976539826 2.3877014349374135 2 53.887718338089634 17.84328278029184 2 83.543261006782075 8.2422784602582801 2 87.140174094940235 5.4179401406841095 2 90.604976770682327 1 2 98.8 9.085407793602668 2 3.18003671467407 14.828143562080879 2 19.059900687120326 15.922950889170446 2 38.282490638187689 13.699488868617461 2 47.279734935257451 1 2 52.098532305861134 5.9096598516492014 2 51.139800512416912 11.941296045632626 2 52.057206245775973 10.595257682511546 2 55.280853529247423 7.4330844768936162 2 57.156463376847249 6.2431034707979904 2 85.623069336617419 9.9282812989956017 2 89.651211527918861 15.492632823679518 2 91.894510303959848 10.649892301089192 2 94.055568499867135 15.904705377995413 2 98.8 6.8854372508404831 2 6.297951770908421 16.834791267161986 2 22.273511393662027 17.850353651484067 2 36.229339092402448 6.3205806062311218 2 39.415540319245572 6.5535020988446764 2 46.779080924954741 13.040566724153379 2 51.264848765213095 15.809040807041582 2 53.093541854359586 4.2443884721344336 2 52.331437981301313 12.871720148493075 2 57.987033690785651 5.3154189131439882 2 84.197413672858829 12.954933507119071 2 86.416536657278428 1.7898693779068546 2 89.181309954291621 3.875760181155866 2 89.850204343942337 4.7839813286335415 2 98.8 14.236100997101106 2 37.55932750244753 11.283512888294863 2 42.789813088093787 17.185508032489377 2 51.176554019053462 8.4967367985255677 2 55.632309782463743 10.621763886321737 2 58.462445672724705 8.1007680009784 2 89.337980311090504 9.1167894642976837 2 90.647564601253535 10.732631033855684 2 91.351810288458964 15.993997992852997 2 93.648076607418176 11.348205439914887 2 98.8 3.1091643085790297 2 7.3796532175206124 13.85493124164322 2 18.954049128735058 3.4800541653036978 2 24.33044442607715 14.535744656577132 2 22.906170338414547 10.960795195403518 2 35.197754314065953 2.7888721714355174 2 49.230640523605253 13.94936589698383 2 51.630242585714726 1.2 2 53.612040166050775 1.2 2 56.109419818892853 15.488344178972753 2 57.961587210081682 2.4900469195574049 2 86.233474068184108 6.6398347159698412 2 98.8 10.412126698808095 2 3.6608566210160909 10.717120065810921 2 5.7016998524478222 4.3337765189862072 2 17.737436219004234 17.702906211343034 2 22.181251537016308 8.5481617206643694 2 21.877121607156049 1.4 2 36.877669908946949 9.4229164648952271 2 38.778773707019788 17.579301819865279 2 50.747426412422271 10.328689429137583 2 52.829650314799068 7.6127952172548943 2 53.999915870381408 9.1251459689280416 2 57.651522184886026 4.2993562897367763 2 87.691498896830851 7.5299871521250159 2 88.055529636719257 12.199960923746293 2 91.902048840432059 8.712506446300452 2 98.651194012696578 16.040549966556981 2 98.8 4.9361861274109273 2 8.1322054067369951 16.465866391596339 2 20.030372861542645 17.801430827743484 2 21.815206832047526 9.968364234833162 2 50.308218923073035 17.328170609476384 2 54.29830098743907 5.7760743493555307 2 55.095487457757102 14.316655355596803 2 83.843652363481638 10.098718924358911 2 87.476118853134381 1.2 2 89.702207447876148 1.2 2 96.945303605092235 14.35609443694859 2 18.125776649882688 13.72491862500136 2 41.737298294460359 15.112586438442635 2 54.634462398098471 12.381402991849031 2 55.759484286075086 8.4648173770655539 2 87.973515969195958 10.55799623764176 2 89.805356126231572 8.0611415970773166 2 90.746728344767718 12.360555417072748 2 93.43073262987609 13.281666161369687 2 98.8 1.2 2 20.934205037770578 14.064529550420689 2 48.960430276348646 15.65923141912258 2 50.850357702716217 3.9014296492830938 2 54.157290552052871 15.961159310600603 2 84.46885382033048 8.2597285407241401 2 88.712116941510615 5.0711159005704918 2 98.8 8.0140132271901567 2 3.2855139419611823 16.994051752251075 2 17.597664662414825 15.483505902264017 2 38.666830035943185 12.270220963471553 2 49.840128745220326 12.537824067481095 2 53.081664155445338 9.7562293606026635 2 53.822569172092635 7.8360341227953079 2 87.221268248006822 9.3805330153826922 2 89.31197503240638 13.847125291008917 2 92.293121739263555 12.269283822193378 2 94.920856576812426 17.811301444575793 2 98.8 5.8957732403099543 2 4.897071382431637 15.552817389651059 2 22.692998568998277 15.934378390027758 2 52.78804620083443 14.965695350171305 2 53.124030266359782 5.6737507970477177 2 53.055508259952809 11.575100202081137 2 85.363695738823907 12.87792586383487 2 89.265630021097323 2.8635477131583356 2 88.663647916447133 6.2932025908133324 2 98.8 12.072098454333135 2 36.817632861496783 12.39222164713108 2 43.486951371657305 15.298013896914926 2 50.142207446881166 2.1647332840464251 2 51.840175540085241 7.0523988176519312 2 55.943958962962576 13.126381331792544 2 56.812762418955892 8.9438466588634409 2 58.00778562701494 6.8056594835085074 2 89.257044398380401 10.51282439440689 2 89.386222046222798 12.179069145009704 2 92.620973655253508 17.472322953607989 2 92.944686392774585 10.030062224292582 2 24.536456346065883 16.12253980456412 2 51.061536060067304 14.00352848696504 2 52.430468184762717 2.8364184279714388 2 52.635730064152085 1.2 2 56.165604245406783 17.618441303909719 2 83.126715122788838 9.4144104267943582 2 86.445721730021305 8.1425055431234323 2 87.70115016374605 4.5344054035480283 2 97.905459503833939 12.9347633297262 2 15.832813775661764 16.777655284778167 2 36.446512320635208 10.588161070561842 2 39.108185927009103 15.328817367620349 2 51.951532196872584 8.9515420091152471 2 55.180921555961852 9.5793046202890366 2 87.428330647199147 6.5147328647821894 2 87.424505206684643 13.352939276913389 2 90.957559671763761 7.5593317428378892 2 97.479984453433232 17.872732440447411 2 98.8 3.9839830239778111 2 8.3364663882179446 18.544439512405731 2 20.842834312911187 15.878120990465616 2 45.372916178309964 15.109840360463611 2 48.181321426202658 17.766840187454491 2 54.303813515441725 6.7826428873661184 2 53.670366839818143 13.61414491939526 2 84.911023896707889 10.843804101883787 2 88.550368993074571 1.2 2 88.252965542645967 2.2513650414350304 2 88.249262387094035 8.5648520018299497 2 96.297218347531356 16.078818583613305 2 6.7196978056841452 14.90934524178839 2 </DataArray>
<DataArray Name="forces" NumberOfComponents="3" format="ascii" type="Float32">-0.05391832769215453 0.16689653661743523 0.0 0.1388442138689413 0.3204177784518551 0.0 0.0098648039462600479 -1.3539773374762434 0.0 0.021892628972728256 0.57164510338017938 0.0 0.059465817874323812 0.10395041857101317 0.0 -0.038813160383783782 0.15027678477454862 0.0 0.0014698249891226672 0.31655300580967138 0.0 -0.018793629169161497 0.19777006902598329 0.0 0.017007986117332063 0.094508706424757338 0.0 0.024246556657139706 0.26248641479436041 0.0 0.088781543546991915 0.19773150219980629 0.0 -0.057551478685658158 0.3939595916224799 0.0 -0.0446332676686651 0.37898481918942667 0.0 1.6168003062401937 0.11004194241037446 0.0 -0.022507779475750916 0.2785301135101329 0.0 -0.063467667769182556 0.053338355550785144 0.0 -0.081385156038015355 0.16522322628353031 0.0 0.043877192018256982 0.37607498232785092 0.0 -0.078161825016784203 0.17876035791544018 0.0 -0.048148295330297811 0.021712606513461075 0.0 -0.18398483231353518 0.50820006492165071 0.0 -0.023634693539766848 0.1677647231850708 0.0 -0.014333760153822123 0.11164496891059056 0.0 0.010966647660032289 -1.3400385592833564 0.0 1.4390034508136287 0.25965771881749322 0.0 -0.077352220043935674 0.31159893712600939 0.0 0.10981139897721715 0.33497266498028683 0.0 -0.0044799044617058748 0.29127411776695511 0.0 0.076161599490811249 -1.2403164759361853 0.0 -0.019690475131165612 0.13990203728978751 0.0 -0.083713761084857938 0.30018914401114438 0.0 -0.11197311509733779 0.28789302251050147 0.0 -0.043599237214728359 0.22491393773990798 0.0 -0.036001141693653677 0.081714980262933612 0.0 0.021675493305259308 0.13759812268028193 0.0 -0.049904213056561564 0.51417747788212187 0.0 0.082255277593913378 0.35496105303477721 0.0 -0.0028553731397496507 0.44889375204241294 0.0 1.3027548692431346 0.2407475885859458 0.0 -0.2023494675027491 0.67508236381447528 0.0 -0.060064716803966967 0.42391051106314143 0.0 0.095492446047991536 0.2296947831670263 0.0 0.0047526686381076377 0.15924462983929943 0.0 0.018191718957491387 0.31078627360403277 0.0 -0.10471582969129409 0.39075936053008808 0.0 -0.062770757369924268 0.080448742400037548 0.0 -0.071542969291230385 0.32378451351313753 0.0 -0.068281477184225919 0.11244727611925234 0.0 0.067478152025074956 0.19300618916290757 0.0 -0.064334639437282903 0.21411619192393955 0.0 0.036689138095267027 0.091099169204741537 0.0 0.051836405754379825 0.093677642996961297 0.0 1.0569648523125783 0.29246465700339308 0.0 0.063294574914496082 0.29087427134365573 0.0 -0.088728600937660634 0.47299226642854886 0.0 -0.037495923595075475 0.13426311538673782 0.0 0.0082209495294716661 0.24746819329078018 0.0 0.051650618951490063 0.10104158807898539 0.0 0.067921485962871064 0.18068453698981668 0.0 0.043303606890126467 0.18953985186092953 0.0 0.011511034121342745 0.46401514283750672 0.0 0.014316025840368507 0.22929764295975524 0.0 1.4711190327207908 0.12925347710553914 0.0 -0.023712940680654992 0.22573848264131496 0.0 -0.0043872140704867002 0.16573915490546143 0.0 0.00075858340435849825 0.27967236741396795 0.0 -0.032907668067888807 0.16105891487480983 0.0 0.040893880119256987 0.035964289243689662 0.0 -0.16864688872415451 0.23504938697627653 0.0 -0.031908219460740961 -1.9546023030407544 0.0 -0.040592445752538397 -1.6844668469719188 0.0 0.034263563998254809 0.40171912524244807 0.0 -0.067478460001411597 0.10192040403741068 0.0 0.037083775817670639 0.034697236596134926 0.0 1.5334632624140807 0.2354367821019403 0.0 -0.052388541333412607 0.23385198235891735 0.0 -0.017106964653884615 0.096338512238734186 0.0 0.055841189103594036 0.44397445655680889 0.0 -0.036643707443257512 0.19894969373903892 0.0 -0.012014946328344434 -1.7173223334597028 0.0 0.05632843500092486 0.19768040389211969 0.0 -0.019488645130176539 0.50816849143808795 0.0 -0.14090694607322568 0.23341377601551935 0.0 -0.061845987522502366 0.24226804705441146 0.0 -0.063982165518432554 0.27521896018782821 0.0 -0.031018103234459554 0.14443193229591741 0.0 -0.039863893260420002 0.18009342988735821 0.0 0.032577124190794726 0.27316894317895157 0.0 0.015082320780753528 0.16061485942740977 0.0 0.12536568573737777 0.40285162477044362 0.0 1.2960049314212783 0.20588094079061481 0.0 -0.062108816610468416 0.32007828191642784 0.0 -0.042664718670187243 0.55006462439533421 0.0 -0.094774953178803245 0.20520591673679403 0.0 0.060914155213594445 0.66880286182715254 0.0 0.0034833894327210985 0.076366532601254075 0.0 -0.024623137356002078 0.44216553490954436 0.0 -0.028443492487615962 0.27128344296081464 0.0 0.091232454698734422 -1.9023363157443671 0.0 0.094634866938996587 -1.702501625241398 0.0 0.004450968466917643 0.3928557698675299 0.0 -0.05170479895580455 0.34736536013463482 0.0 -0.01316330902706675 0.3381368065091705 0.0 -0.019210676301347707 0.3407478110827144 0.0 -0.03001943730658807 0.18942142592752004 0.0 0.075454422495628115 0.26030294829313899 0.0 0.028319065206321239 0.10561545705781608 0.0 0.065190630267834671 0.26261832970102872 0.0 0.033292887453527209 0.33441299662846241 0.0 2.4513579670889372 -1.9331062029509645 0.0 -0.062305360627051554 0.34327014270706202 0.0 0.13443800342167822 0.44589978562247745 0.0 -0.12058832676470077 0.12121095601549037 0.0 0.011893359355032183 0.45968267497481835 0.0 0.021205750795796008 0.090095804092944293 0.0 0.02963254794920267 0.0014954530816291278 0.0 1.1157312694490804 0.25769421437342399 0.0 -0.074710712806660418 0.44010962362472006 0.0 -0.06308076317766545 0.55440937496797282 0.0 0.084425870990328292 0.23936535964861178 0.0 0.063031830843274739 0.28723879727440604 0.0 -0.093747599759618438 0.24777075026597867 0.0 -0.041121687305502197 0.20118125232271133 0.0 0.088482830167499138 0.25294876343545269 0.0 0.021366804267702211 0.40884302205891537 0.0 0.060725649135594473 0.33221302833348754 0.0 0.085301128229072348 0.43855093931415434 0.0 1.0702963465533708 0.22299118975853499 0.0 -0.049428581559833401 0.34536407084334297 0.0 0.052906568148198996 0.32801949251232293 0.0 -0.0003713068967840516 0.38196424112114447 0.0 0.029820048387627085 0.18543163680818353 0.0 -0.053771625047868608 0.25592659387473599 0.0 0.084239642020912775 0.34131352202927062 0.0 0.14546722834161829 0.055955456843741508 0.0 0.051783247413985323 0.086417830201994061 0.0 1.3009263267773985 0.19678370463813688 0.0 0.039096567354824363 0.33141429915346321 0.0 0.10158911503379842 0.43498330963080378 0.0 -0.073752591269582959 0.082117377624781995 0.0 -0.044248789180463641 0.14190718905985422 0.0 -0.062097041324667909 0.30762771613332768 0.0 0.00081760593739539644 0.23742212837938806 0.0 -0.058962500662638306 0.1449951212323291 0.0 0.053562105957119459 0.23514506860401305 0.0 0.085704525191534972 0.33760563503188207 0.0 0.033170046526053529 0.53708849443591822 0.0 -0.0042230593911775083 0.1357992580142634 0.0 -0.039873211221368887 0.51550214403885819 0.0 -0.086329705316324279 0.4118772236159659 0.0 -0.097354498776319978 0.22951571259740944 0.0 -0.03885644921820576 -2.0855227119341206 0.0 -0.082413891605413264 0.45195499738831996 0.0 0.13093664204777961 0.096998967331310748 0.0 0.016858411253327876 0.19110942888874807 0.0 0.0076171082299541504 0.091828187546876938 0.0 -0.017332280520344835 0.25879092512096125 0.0 -0.091131490017741068 0.47337782234198467 0.0 0.085626974366831698 0.24790727192913295 0.0 0.13367839773562831 0.4166390012591053 0.0 -0.12321133554710208 0.2605707717654559 0.0 -0.027101778028709944 0.22932969283362242 0.0 0.1011038147384387 0.11680830104674561 0.0 0.11053661579401745 0.34132039520939472 0.0 -0.03149591742072147 0.067153676346122682 0.0 0.016104089440991717 0.40189899273242047 0.0 1.2279189375887565 0.19597511167240469 0.0 -0.071033645645230112 0.37971070824182485 0.0 0.088861637279162631 0.47912681247098388 0.0 0.10990229104320202 0.21210257707872771 0.0 -0.036050220914683156 0.47317448673914808 0.0 -0.083284998671365101 0.14928697972584243 0.0 -0.048671913122152993 0.333199865792568 0.0 0.040752519831634249 0.16820265328796091 0.0 0.089477042071459706 -1.8436611978126916 0.0 0.087029038587550372 0.08675439186435685 0.0 0.058466147631314275 0.13212063481609693 0.0 0.044157075611150357 0.38173121696029821 0.0 0.071602109525410018 0.44245185602449744 0.0 </DataArray>
<DataArray Name="radii" format="ascii" type="Float32">1 1.2 1.4 1.2 1.4 1.5999999999999999 1.2 1.2 1.2 1.2 1.2 1.2 1.2 1.2 1.2 1.2 1.4 1.2 1.2 1.4 1.2 1.2 1 1 1.2 1.2 1.2 1.2 1 1.4 1.2 1.2 1.2 1 1.2 1.2 1.2 1.2 1.2 1.2 1.2 1.4 1.4 1.2 1.2 1.2 1.2 1.4 1 1 1.2 1 1.2 1.2 1.2 1.2 1.2 1.2 1.2 1.2 1.2 1.2 1.2 1 1.4 1.2 1.2 1.2 1.2 1.2 1.2 1.2 1.2 1 1.2 1.4 1.4 1.2 1.4 1.4 1 1.2 1.2 1.2 1.2 1.4 1.2 1.2 1.2 1.2 1.2 1.2 1.2 1.4 1.2 1 1.2 1.2 1.2 1.2 1.2 1.2 1.2 1.2 1.2 1.2 1.2 1.2 1.2 1.2 1.2 1.2 1.2 1.2 1 1.2 1.2 1.2 1.2 1.2 1.2 1.2 1.2 1.2 1.2 1.2 1.2 1.2 1.2 1.2 1.2 1.2 1.2 1.2 1.2 1.2 1.2 1.2 1.2 1.2 1.2 1.2 1.2 1.2 1.2 1.2 1.2 1.2 1.2 1.2 1.2 1.2 1.2 1.2 1.2 1.2 1.2 1.2 1.2 1.2 1.2 1.2 1.2 1.2 1.2 1.2 1.2 1.2 1.2 1.2 1.2 1.2 1.2 1.2 1.2 1.2 1.2 1.2 1 </DataArray>
</PointData>
<CellData/>
</Piece>
</UnstructuredGrid>
</VTKFile>
