<?xml version="1.0" ?>
<VTKFile byte_order="LittleEndian" type="UnstructuredGrid" version="0.1">
<UnstructuredGrid>
<Piece NumberOfCells="0" NumberOfPoints="38">
<Points>
<DataArray NumberOfComponents="3" format="ascii" type="Float32">3.8969355465021893 4.1785140956502547 2 7.9339470499913105 1.4 2 18.529017147004975 5.3977329093926052 2 22.097507479281475 1.4 2 24.556706518009612 1.4 2 36.168104471847698 4.0823889202435142 2 40.193303481252045 6.2778309230486391 2 45.626196175449927 1.4 2 50.022254549155775 1.4 2 51.822689378270368 4.0646397350585319 2 54.323200534482019 4.5491543311712963 2 56.131294971955597 2.8256318747816107 2 59.845116366999932 4.0440369537544676 2 81.740977841949629 1.4 2 86.908961974295778 3.8727382906132908 2 89.226129950720591 3.9773141723978309 2 91.527056681572731 4.0344414133907689 2 94.892392546831232 6.5099007074590531 2 98.6 1.4 2 3.5464778224112115 1.4 2 7.6431558510057638 6.3847475202994115 2 17.315639452016644 1.4 2 22.083855664078001 6.2685541480402653 2 23.348677838170055 3.8440566393677771 2 34.779742434193714 1.4 2 39.148111606125525 1.4 2 46.784786882026339 3.9947356598265844 2 50.446102821916327 6.4726698194624177 2 52.214182303670192 1.4 2 54.446223266034416 1.4 2 55.782060072642821 6.8332490773759966 2 60.117355815269079 1.4 2 82.484604924936122 3.9055154633875087 2 86.025143035024257 1.4 2 88.18141263259291 1.4 2 90.320758349970845 1.4 2 94.545627670172038 1.4 2 98.6 4.1933390014400134 2 </DataArray>
</Points>
<Cells>
<DataArray Name="connectivity" format="ascii" type="Int32">0</DataArray>
<DataArray Name="offsets" format="ascii" type="Int32">0</DataArray>
<DataArray Name="types" format="ascii" type="UInt8">1</DataArray>
</Cells>
<PointData>
<DataArray Name="Points" NumberOfComponents="3" format="ascii" type="Float32">3.8969355465021893 4.1785140956502547 2 7.9339470499913105 1.4 2 18.529017147004975 5.3977329093926052 2 22.097507479281475 1.4 2 24.556706518009612 1.4 2 36.168104471847698 4.0823889202435142 2 40.193303481252045 6.2778309230486391 2 45.626196175449927 1.4 2 50.022254549155775 1.4 2 51.822689378270368 4.0646397350585319 2 54.323200534482019 4.5491543311712963 2 56.131294971955597 2.8256318747816107 2 59.845116366999932 4.0440369537544676 2 81.740977841949629 1.4 2 86.908961974295778 3.8727382906132908 2 89.226129950720591 3.9773141723978309 2 91.527056681572731 4.0344414133907689 2 94.892392546831232 6.5099007074590531 2 98.6 1.4 2 3.5464778224112115 1.4 2 7.6431558510057638 6.3847475202994115 2 17.315639452016644 1.4 2 22.083855664078001 6.2685541480402653 2 23.348677838170055 3.8440566393677771 2 34.779742434193714 1.4 2 39.148111606125525 1.4 2 46.784786882026339 3.9947356598265844 2 50.446102821916327 6.4726698194624177 2 52.214182303670192 1.4 2 54.446223266034416 1.4 2 55.782060072642821 6.8332490773759966 2 60.117355815269079 1.4 2 82.484604924936122 3.9055154633875087 2 86.025143035024257 1.4 2 88.18141263259291 1.4 2 90.320758349970845 1.4 2 94.545627670172038 1.4 2 98.6 4.1933390014400134 2 </DataArray>
<DataArray Name="forces" NumberOfComponents="3" format="ascii" type="Float32">0.037220279142475166 0.024717070366698676 0.0 0.040432356476040869 -0.11700285195117839 0.0 0.002563869653070705 0.13698706673381172 0.0 0.0027062603822111397 -0.051024448832270038 0.0 -0.021686610039757359 -0.068336213145131899 0.0 0.051001790331375585 0.024148966306378319 0.0 0.0018997532210339313 0.1834950773909812 0.0 0.0082010807542260977 0.0 0.0 0.01936463074217365 -0.11565904858478879 0.0 0.0051470158251928216 0.046145305166477302 0.0 -0.016291408373805161 0.17975135475938786 0.0 0.027995636067302432 0.23814550871127216 0.0 -0.043058965893865951 0.0037498295628203837 0.0 -0.048265624554618837 -0.1755746793103575 0.0 -0.043309600057845024 0.0018352055646746711 0.0 -0.008666756732372204 0.026932784463413198 0.0 0.0085034340544195008 0.03767239672226539 0.0 -0.00071381347984070947 0.073800171899413403 0.0 0.78865959349168957 -0.0065588427926530635 0.0 0.013935124236154284 0.0 0.0 0.040548073910329684 0.079888018869843896 0.0 0.026973812635903482 -0.11523395362389481 0.0 -0.025434557876882168 0.071001469586885246 0.0 -0.009344047573658032 0.055973073397649717 0.0 -0.029930255348423862 -0.027763686043573977 0.0 -0.014653785852344781 -0.19144275537798888 0.0 -0.032356487904696855 0.0058499391612038144 0.0 0.0064110221427561408 0.069117901277444188 0.0 0.052690256207189035 -0.10886701432554766 0.0 0.11114082340563836 -0.38298997813255792 0.0 -0.065515152162285373 0.20846893019115101 0.0 -0.033822415440176057 -0.13842314331416483 0.0 0.065714906415993202 -0.036228460437865928 0.0 -0.0262370350752682 -0.16034483554066631 0.0 -0.014381231375272918 -0.033748218063620723 0.0 -0.015207005579640054 0.0 0.0 -0.023001154244512101 -0.13828131305658581 0.0 0.41331736071592978 0.02638899424423842 0.0 </DataArray>
<DataArray Name="radii" format="ascii" type="Float32">1.4 1.4 1.4 1.4 1.4 1.4 1.4 1.4 1.4 1.4 1.4 1.4 1.4 1.4 1.4 1.4 1.4 1.4 1.4 1.4 1.4 1.4 1.4 1.4 1.4 1.4 1.4 1.4 1.4 1.4 1.4 1.4 1.4 1.4 1.4 1.4 1.4 1.4 </DataArray>
</PointData>
<CellData/>
</Piece>
</UnstructuredGrid>
</VTKFile>
