<?xml version="1.0" ?>
<VTKFile byte_order="LittleEndian" type="UnstructuredGrid" version="0.1">
<UnstructuredGrid>
<Piece NumberOfCells="0" NumberOfPoints="120">
<Points>
<DataArray NumberOfComponents="3" format="ascii" type="Float32">2.0315203126250583 5.3696483784187645 2 6.425893525652552 5.1484383414604 2 10.450193859822379 1.2 2 12.47672379313858 1.2 2 12.601462500006265 4.7903240520908854 2 16.133113811173097 6.3287692641898401 2 19.267271754854498 5.0729049030748641 2 25.712555733967839 5.4424835971211483 2 29.414222125486223 5.7071882698541456 2 30.770274900700546 9.1905153701931237 2 31.529270914957809 5.5275963429393995 2 33.522059021045514 4.9704921693071134 2 40.06556602901108 6.2278131734467435 2 41.836195003570118 5.0264899875958253 2 43.964879575356989 5.341557938479502 2 49.350933782991547 5.7376463912487106 2 58.196451497085114 7.101818640601758 2 60.961023950725767 6.9820433881172601 2 63.398107493422692 1.2 2 65.165783095238908 1.2 2 70.123930893245017 9.6214971641270921 2 70.191995579813963 4.8326313010125812 2 74.116189902094334 5.0210827497335444 2 72.329770605197112 9.3541829170969404 2 75.789137436077525 6.4062495328759788 2 77.051519049083993 2.4595747919342417 2 79.718924639230977 5.7401242163338688 2 83.656725977280402 3.3147039762395094 2 91.453767709079983 3.2857982086779596 2 96.650521493228027 5.1296470358769213 2 1.2701802025319595 1.2 2 6.0367645514444348 1.2 2 8.621429716468441 4.9785809781390213 2 11.757124459786553 9.2061340325454903 2 15.65266765789338 3.1390360647878461 2 14.747121436506754 9.239260681843529 2 19.12440837522167 1.2 2 26.40711671193986 3.1772378399625678 2 26.458393506196714 9.6614032317916365 2 32.998424907805585 9.4143520591189791 2 29.438016367539745 1.7602436459185069 2 33.460001648640933 1.2 2 36.793015097280268 3.1260005302468992 2 41.034086200536528 3.0457336002774547 2 44.157902702273731 1.2 2 47.23815393661323 3.2835022279654931 2 57.697453463293996 1.2 2 62.141547060477961 3.7681846561878554 2 65.000960893297773 5.3550130732187471 2 67.604589458916521 5.9799674230179427 2 65.65764997115366 9.6592383843369145 2 68.895500464607579 1.2 2 72.703340148225635 1.2 2 77.109081179827015 8.100432854250899 2 75.531942445565406 1.2 2 78.161542638384674 4.2535999594616536 2 80.495073787740651 1.2 2 83.893600388453208 7.7382465342627995 2 94.410544473020778 5.596187302351491 2 97.20056443093894 2.9656607763758771 2 1.2 7.4545451249867716 2 5.5469198035667731 7.2549226840404817 2 9.4550951331092197 2.9479326478843677 2 13.378116025691163 2.9515291459452304 2 12.2826284556006 7.018236954551627 2 17.151706603841099 4.6905042056559267 2 20.351736799567192 7.4138623269458259 2 24.475214162765649 3.4102917420554077 2 27.671493483524404 4.630544875250286 2 28.5971095095748 8.7310611567432375 2 29.668854450478577 3.8549046489157024 2 33.068734446151502 7.1030581451293475 2 38.000665244158327 5.179275860623977 2 42.489179222323401 7.1725118631530362 2 44.848906277175686 7.5125780439321028 2 49.238449031707347 3.4098396048668382 2 58.072206732316687 9.3569332988685225 2 63.24574543814424 6.8400404680092057 2 65.214902490360046 3.3440308635984657 2 66.859120054921817 2.3277186351389316 2 68.500006315549513 8.1797391843689677 2 70.591475009401591 7.291336544885521 2 73.025030784316641 3.4238721136424215 2 74.491994423639852 10.216375026552821 2 73.910160722523713 7.9818137713889667 2 78.565545487920446 1.2 2 81.597812483319004 7.3964794988365608 2 84.559106155753426 1.2 2 92.507563499664272 1.2 2 96.088291185082852 7.2988513158458348 2 1.2 3.3703320698799981 2 5.1764964852747717 3.1626828343799005 2 10.740909360267031 4.3245411376799625 2 9.9691113104145188 7.7335352406328557 2 14.652049489790425 1.2 2 14.161929408728426 5.9319567014519725 2 20.322992880355315 3.1963097078953511 2 26.986351560727453 1.2 2 26.730398754547501 7.4498381204755804 2 34.94255596785424 8.3478953516958381 2 31.384982776092354 1.2 2 32.492360200279258 3.080367074058068 2 37.773390704229854 1.2 2 42.078806431095401 1.2 2 43.112515952508787 3.2244714374642394 2 48.209539440437993 1.2 2 56.443617560063913 3.0440189384489074 2 61.408558204965743 1.2 2 63.524331238036901 4.6299870473107418 2 68.04399714819796 4.0391398928883486 2 66.499736577103818 7.6526757991766976 2 69.746779681889123 2.990002470545031 2 70.790377183723166 1.2 2 77.682661530893782 10.21882529321344 2 75.106942610964268 3.2040672073560086 2 77.882226988071892 6.3373007600369542 2 79.960690611459086 3.4832344268365167 2 86.211438708482362 7.6869890360110409 2 93.388498770957739 3.4427323587551841 2 96.546135153784661 1.2 2 </DataArray>
</Points>
<Cells>
<DataArray Name="connectivity" format="ascii" type="Int32">0</DataArray>
<DataArray Name="offsets" format="ascii" type="Int32">0</DataArray>
<DataArray Name="types" format="ascii" type="UInt8">1</DataArray>
</Cells>
<PointData>
<DataArray Name="Points" NumberOfComponents="3" format="ascii" type="Float32">2.0315203126250583 5.3696483784187645 2 6.425893525652552 5.1484383414604 2 10.450193859822379 1.2 2 12.47672379313858 1.2 2 12.601462500006265 4.7903240520908854 2 16.133113811173097 6.3287692641898401 2 19.267271754854498 5.0729049030748641 2 25.712555733967839 5.4424835971211483 2 29.414222125486223 5.7071882698541456 2 30.770274900700546 9.1905153701931237 2 31.529270914957809 5.5275963429393995 2 33.522059021045514 4.9704921693071134 2 40.06556602901108 6.2278131734467435 2 41.836195003570118 5.0264899875958253 2 43.964879575356989 5.341557938479502 2 49.350933782991547 5.7376463912487106 2 58.196451497085114 7.101818640601758 2 60.961023950725767 6.9820433881172601 2 63.398107493422692 1.2 2 65.165783095238908 1.2 2 70.123930893245017 9.6214971641270921 2 70.191995579813963 4.8326313010125812 2 74.116189902094334 5.0210827497335444 2 72.329770605197112 9.3541829170969404 2 75.789137436077525 6.4062495328759788 2 77.051519049083993 2.4595747919342417 2 79.718924639230977 5.7401242163338688 2 83.656725977280402 3.3147039762395094 2 91.453767709079983 3.2857982086779596 2 96.650521493228027 5.1296470358769213 2 1.2701802025319595 1.2 2 6.0367645514444348 1.2 2 8.621429716468441 4.9785809781390213 2 11.757124459786553 9.2061340325454903 2 15.65266765789338 3.1390360647878461 2 14.747121436506754 9.239260681843529 2 19.12440837522167 1.2 2 26.40711671193986 3.1772378399625678 2 26.458393506196714 9.6614032317916365 2 32.998424907805585 9.4143520591189791 2 29.438016367539745 1.7602436459185069 2 33.460001648640933 1.2 2 36.793015097280268 3.1260005302468992 2 41.034086200536528 3.0457336002774547 2 44.157902702273731 1.2 2 47.23815393661323 3.2835022279654931 2 57.697453463293996 1.2 2 62.141547060477961 3.7681846561878554 2 65.000960893297773 5.3550130732187471 2 67.604589458916521 5.9799674230179427 2 65.65764997115366 9.6592383843369145 2 68.895500464607579 1.2 2 72.703340148225635 1.2 2 77.109081179827015 8.100432854250899 2 75.531942445565406 1.2 2 78.161542638384674 4.2535999594616536 2 80.495073787740651 1.2 2 83.893600388453208 7.7382465342627995 2 94.410544473020778 5.596187302351491 2 97.20056443093894 2.9656607763758771 2 1.2 7.4545451249867716 2 5.5469198035667731 7.2549226840404817 2 9.4550951331092197 2.9479326478843677 2 13.378116025691163 2.9515291459452304 2 12.2826284556006 7.018236954551627 2 17.151706603841099 4.6905042056559267 2 20.351736799567192 7.4138623269458259 2 24.475214162765649 3.4102917420554077 2 27.671493483524404 4.630544875250286 2 28.5971095095748 8.7310611567432375 2 29.668854450478577 3.8549046489157024 2 33.068734446151502 7.1030581451293475 2 38.000665244158327 5.179275860623977 2 42.489179222323401 7.1725118631530362 2 44.848906277175686 7.5125780439321028 2 49.238449031707347 3.4098396048668382 2 58.072206732316687 9.3569332988685225 2 63.24574543814424 6.8400404680092057 2 65.214902490360046 3.3440308635984657 2 66.859120054921817 2.3277186351389316 2 68.500006315549513 8.1797391843689677 2 70.591475009401591 7.291336544885521 2 73.025030784316641 3.4238721136424215 2 74.491994423639852 10.216375026552821 2 73.910160722523713 7.9818137713889667 2 78.565545487920446 1.2 2 81.597812483319004 7.3964794988365608 2 84.559106155753426 1.2 2 92.507563499664272 1.2 2 96.088291185082852 7.2988513158458348 2 1.2 3.3703320698799981 2 5.1764964852747717 3.1626828343799005 2 10.740909360267031 4.3245411376799625 2 9.9691113104145188 7.7335352406328557 2 14.652049489790425 1.2 2 14.161929408728426 5.9319567014519725 2 20.322992880355315 3.1963097078953511 2 26.986351560727453 1.2 2 26.730398754547501 7.4498381204755804 2 34.94255596785424 8.3478953516958381 2 31.384982776092354 1.2 2 32.492360200279258 3.080367074058068 2 37.773390704229854 1.2 2 42.078806431095401 1.2 2 43.112515952508787 3.2244714374642394 2 48.209539440437993 1.2 2 56.443617560063913 3.0440189384489074 2 61.408558204965743 1.2 2 63.524331238036901 4.6299870473107418 2 68.04399714819796 4.0391398928883486 2 66.499736577103818 7.6526757991766976 2 69.746779681889123 2.990002470545031 2 70.790377183723166 1.2 2 77.682661530893782 10.21882529321344 2 75.106942610964268 3.2040672073560086 2 77.882226988071892 6.3373007600369542 2 79.960690611459086 3.4832344268365167 2 86.211438708482362 7.6869890360110409 2 93.388498770957739 3.4427323587551841 2 96.546135153784661 1.2 2 </DataArray>
<DataArray Name="forces" NumberOfComponents="3" format="ascii" type="Float32">-0.041814653436962314 0.10352377992781081 0.0 -0.0068857186166684688 0.082615390316246387 0.0 0.0019452417220258977 -0.34087662631663301 0.0 0.027192357323320059 -0.37948324253416243 0.0 0.018176769048836722 0.075599601046592441 0.0 -0.01093429850682362 0.14513176728785546 0.0 -0.021636438256160018 0.075687340666368799 0.0 0.018595378758173735 0.025235113237939408 0.0 -0.023258142750136285 0.092902797251815175 0.0 -0.014239508362332232 0.096901957391261173 0.0 -0.029607220659255681 0.15711118644937389 0.0 -0.010355278001910599 0.079190182527719366 0.0 0.014451265791118814 0.13545374108031041 0.0 -0.017674116063243258 0.06836958373403422 0.0 0.010574165572041029 0.054561234754331708 0.0 -0.077363253212720889 0.072256810793034046 0.0 0.020270398144766097 0.11235439971974492 0.0 -0.032721901066941381 0.18574774904307792 0.0 -0.022334220820380939 -0.50412145145260445 0.0 -0.016650507255784486 -0.19260183885752327 0.0 -0.06954739987619861 0.14519362083606638 0.0 0.029946682973316284 0.10829787848868952 0.0 0.032267142915586966 0.069680497113077777 0.0 -0.061921795205327756 0.11968712154364572 0.0 0.0052096133642421487 0.10016208479102073 0.0 0.0074442586192124405 0.034094436975102199 0.0 0.0052267263783681312 0.075175039802411969 0.0 0.00088401858494855171 0.068439986961546323 0.0 -0.016994486224733263 0.022120629207885559 0.0 0.021081834292977289 0.052421154478145771 0.0 0.0073894541511549689 -0.23180043333307584 0.0 -0.03346641592949591 -0.32027675451139498 0.0 -0.0094355344171522249 0.042438134773280095 0.0 0.049803827368743614 0.12325053224740951 0.0 0.020119371099677402 0.026686320516797979 0.0 0.0013047059947269186 0.14756036958193308 0.0 -0.026402817462300596 -0.38127436291425348 0.0 -0.01173602648882624 0.02604785895356259 0.0 -0.073304859283106011 0.12137863070340708 0.0 0.00060124153310409101 0.11380216228888523 0.0 0.028485115923604587 0.030355668121403417 0.0 0.061068296896223256 -0.39613472705020181 0.0 0.017493682111140385 0.057441569654645468 0.0 -0.02280930575763114 0.065260362872490513 0.0 -0.027516255350359418 -0.22135309346351706 0.0 -0.019422415267424206 0.0090448729831778263 0.0 -0.02190233656568602 -0.33360372109976433 0.0 -0.0952504094175608 0.14222589910352307 0.0 -0.0079029765533011661 0.05674314623489296 0.0 0.011217957812256429 0.1460266809888861 0.0 -0.039642168282944597 0.15866393363808856 0.0 -0.029978397228180076 -0.53327192059800932 0.0 0.0073176131587579518 -0.45562044242723804 0.0 0.015003531796581621 0.12462964024789532 0.0 0.027203282269623541 -0.35759654584216299 0.0 0.0003241502687277853 0.078072850735143931 0.0 0.04259249769576362 -0.17647500544264316 0.0 0.032338235748300928 0.1523340184472031 0.0 0.0042902031155668896 0.024728692629419836 0.0 0.0011381949047067075 0.019077327586367321 0.0 -0.29948824616929665 0.15828668117143599 0.0 0.0059933677843363037 0.097863015819976279 0.0 -0.020280688708277761 0.028040352958250803 0.0 0.015921223035256907 0.055499934948475896 0.0 -0.03336906068909759 0.095776472942862553 0.0 -0.043480579768436778 0.10986059834370637 0.0 0.025224065832967393 0.057709444197681536 0.0 -0.025242031077137961 0.029975528217669765 0.0 0.019066520969580399 0.035056865799098613 0.0 -0.058175697282027754 0.15952521191010047 0.0 0.011391289729067861 0.046986869285745914 0.0 0.038157412819003395 0.10579998147266197 0.0 0.025996569204245701 0.075989848138925578 0.0 0.02865973107129114 0.074854250347823725 0.0 0.038396095840012065 0.055844952498797888 0.0 -0.0019969877053566121 0.051715082291859976 0.0 0.023065183580296505 0.14423063979851636 0.0 -0.018653399736058215 0.076559996507969116 0.0 -0.012005771920038766 0.037646534074420854 0.0 0.0088218362013304241 0.012216244278649702 0.0 -0.026579512205466518 0.067078084836723839 0.0 0.0073012600054344623 0.15136653324301999 0.0 -0.0047747465670701789 0.0033342618843891225 0.0 -0.0422061543799645 0.09671161977712972 0.0 -0.014858368325198656 0.14867945410360942 0.0 0.039839327293630378 -0.52461138711799871 0.0 0.05259285985340463 0.047070227056893163 0.0 0.020738238227306804 -0.15346315980663305 0.0 0.018239237075241388 -0.059386870985783845 0.0 -0.0083253048119422343 0.069326182616268384 0.0 -0.57054017596085427 0.037096579895036091 0.0 -0.011168684464939405 0.067018639205678909 0.0 0.0037344121498718019 0.03916513460849444 0.0 0.04877777469287331 0.096564612698602004 0.0 0.019553547808543431 -0.32420113258680233 0.0 -0.016740085872379983 0.1294019075012415 0.0 -0.037948628206435409 0.03643782749526131 0.0 -0.00076168831275491566 -0.50010632055002036 0.0 -0.053859162375520679 0.099219549521817066 0.0 0.029222314947634526 0.14052894203126029 0.0 0.049355968377881448 -0.46721098816547046 0.0 0.026427168510764071 0.030180187061902744 0.0 0.027128693353501765 -0.32875429727431704 0.0 -0.017355716042081026 -0.36470517427226812 0.0 -0.023787426514945947 0.043390402628622704 0.0 -0.029827131258984119 -0.090413003576767972 0.0 -0.061528426755977306 0.056014183751089353 0.0 0.009266230870610459 -0.38917141432489155 0.0 -0.035620881492990072 0.07046623906635574 0.0 -0.031186492582651916 0.073023439621418856 0.0 -0.062350882434368482 0.1367681657921424 0.0 0.021505757194962338 0.047117463823475245 0.0 -0.026025063571591178 -0.42427823861798131 0.0 0.032532083688641029 0.12075517785896837 0.0 0.0080469705591956209 0.047769770716104276 0.0 0.00097029218490091163 0.10001161382986393 0.0 -0.0019432871630234438 0.046975908721712062 0.0 0.036026375335318175 0.067066035229710982 0.0 -0.021840075523628915 0.033152613089823327 0.0 0.016861038271432149 -0.48432829508705649 0.0 </DataArray>
<DataArray Name="radii" format="ascii" type="Float32">1.2 1.2 1.2 1.2 1.12 1.2 1.2 1.2 1.12 1.2 1.12 1.2 1.2 1.12 1.2 1.2 1.2 1.2 1.2 1.2 1.2 1.12 1.12 1.2 1.12 1.12 1.2 1.2 1.2 1.2 1.2 1.2 1.2 1.2 1.2 1.2 1.2 1.12 1.2 1.2 1.2 1.2 1.2 1.2 1.2 1.2 1.2 1.12 1.12 1.12 1.2 1.2 1.2 1.12 1.2 1.12 1.2 1.2 1.2 1.2 1.2 1.2 1.2 1.12 1.12 1.2 1.2 1.2 1.12 1.2 1.12 1.12 1.2 1.2 1.2 1.2 1.2 1.2 1.12 1.12 1.12 1.2 1.2 1.2 1.12 1.2 1.2 1.2 1.2 1.2 1.2 1.2 1.12 1.2 1.2 1.12 1.2 1.2 1.12 1.2 1.2 1.12 1.2 1.2 1.2 1.2 1.2 1.2 1.12 1.12 1.12 1.12 1.2 1.2 1.12 1.12 1.12 1.2 1.2 1.2 </DataArray>
</PointData>
<CellData/>
</Piece>
</UnstructuredGrid>
</VTKFile>
