<?xml version="1.0" ?>
<VTKFile byte_order="LittleEndian" type="UnstructuredGrid" version="0.1">
<UnstructuredGrid>
<Piece NumberOfCells="0" NumberOfPoints="480">
<Points>
<DataArray NumberOfComponents="3" format="ascii" type="Float32">1.2400000000000002 9.2693835539879998 2 5.2223962835805464 7.9751348213446676 2 7.6335472552454613 1.12 2 12.833202610390611 1.2400000000000002 2 12.365249413039315 7.9358687946139064 2 16.527515600459957 9.0130620280906033 2 20.25331373367888 7.7247817565153891 2 24.615938173900517 9.3452693182774578 2 29.156203802949236 8.445897381418483 2 29.765314318798222 18.141797286506101 2 33.310693325385266 9.4531829133435199 2 35.117464587933078 6.7695918730418914 2 39.224464174719309 11.425862279700588 2 41.958379050266082 7.5215982655683034 2 46.402891503633271 9.7258419290550222 2 48.819300250074122 9.4710104154519659 2 57.53829795220588 9.7057244699606997 2 60.041635900109576 16.490356564579518 2 60.838042087098671 2.0393248424525114 2 64.314699032660926 1.9827628332379035 2 69.543902261222712 17.038618046940709 2 70.16159152427845 8.345755964959551 2 73.84133550719902 8.0641243292758951 2 72.532637051997398 15.895373420527443 2 76.783892239818883 9.7542069443115142 2 77.388896949414828 3.3986177292768627 2 82.710690302763155 6.3551047622880255 2 85.568041470844918 5.5528260951124757 2 90.597143820651922 6.8187039076337284 2 98.036651045663575 8.666071638294655 2 2.3314192562391707 1.2400000000000002 2 5.5391819159129074 1.2400000000000002 2 7.6470298160562988 7.8709017415643299 2 11.235473173229321 16.629425183721377 2 15.841461055841661 4.8981840169543691 2 13.229501039590232 13.169155194013758 2 18.912969340906052 2.5042611632248275 2 25.941929757425797 4.5460349318666839 2 25.909610970284469 15.440196091347484 2 32.677661287002358 18.408526973648186 2 28.107998315893266 1.12 2 36.308546434714621 1.2400000000000002 2 37.34599988871912 6.9176355150846911 2 40.736517980942814 3.107349787919071 2 46.770965675460324 1.12 2 46.454534920654986 4.9207029037654273 2 55.520405053032285 1.2400000000000002 2 58.717911486977108 5.6012045840856342 2 65.078872940557673 8.3571701782939396 2 66.197146998490382 10.92486333217219 2 63.538828140275349 15.476500497435172 2 68.333617762234255 2.6973903788381302 2 73.162128776803783 1.9525442642541639 2 80.297308810240352 14.134261365948213 2 76.266030468502748 2.1566230684986691 2 80.204711966248098 6.5125803380009701 2 83.504411445630481 1.2400000000000002 2 83.961279200945341 14.354322347247075 2 93.74027893616497 8.1465854879860604 2 95.443698513477642 4.0779017830141511 2 1.4568893400567111 14.564488999467205 2 5.3434295368817279 14.272009694817761 2 7.4031430038230965 2.6795034342714086 2 12.234629357128869 3.4604844508804353 2 11.019029801821521 10.695734468962671 2 19.963782103708791 6.8816748238472867 2 21.511108910993517 12.003528778903723 2 23.809393392105754 6.4366966633717482 2 27.56409389473836 7.9035177202950582 2 25.66636333276675 14.161879304173546 2 28.660257263162002 5.0517494799041138 2 35.614129124754889 11.111491580825977 2 39.053882925901583 9.0696519166803959 2 41.923628878999281 10.690489074157698 2 46.937890589838069 16.652901563705868 2 48.903086258444944 5.7199567960137907 2 57.899135595125799 14.48410269723561 2 59.954399601245143 10.303682997019393 2 62.330048778134213 5.5319180481175065 2 65.914975849954345 4.2550678358062104 2 68.260847522557327 13.004947787597722 2 70.592359817440553 11.467389573108614 2 72.598932373926601 5.6697279528489668 2 76.175469769472244 14.38268078149401 2 73.562254092386667 11.960968534908117 2 81.502022471248111 1.12 2 81.580340979156674 12.790127083713109 2 86.497141331172699 1.2400000000000002 2 92.228113415863675 1.7608376514094459 2 96.346408588713899 10.52318775591568 2 1.2400000000000002 6.4345648110488023 2 5.5186465883024685 5.3222888200351353 2 9.3716245904390316 7.638848753707971 2 9.1810926182345849 12.075338907769472 2 16.158919341354817 1.2400000000000002 2 13.978762482030012 9.7535307873016031 2 20.654828700214829 3.7923515227396987 2 23.853931810570998 1.2400000000000002 2 24.022924430841336 13.198249355714822 2 37.596613798861007 16.513042123359284 2 31.226316234061422 1.1228790244830804 2 33.975707569195315 3.7120128755399264 2 37.514223351210958 3.2193708109300938 2 41.126849053508515 2.1875587033084023 2 45.643641001289993 4.5542772016193469 2 47.077865158152427 2.6364236443761717 2 53.79811285819325 4.3630665755881175 2 57.629909842078852 1.12 2 61.090088213625627 7.5861505248703853 2 67.682627250736388 6.7484566054314143 2 65.776893335876466 14.810275830012815 2 69.346401688731333 4.7885109552224563 2 71.268826160550248 3.3448183832480827 2 78.032966908116805 19.865499447047444 2 75.928914329591677 6.0805033937105213 2 79.912313592605756 10.203342744132092 2 83.275611810818987 5.2037056492859914 2 86.177971030928589 12.143573197925564 2 93.579583059106895 5.4464127515460357 2 95.115129223030806 1.2400000000000002 2 3.1841444675057069 12.1479450618931 2 3.7342986834763279 9.7171583773557302 2 10.277947839293113 2.4817302775701013 2 11.019755789593576 1.12 2 17.091985857131579 11.304699492642829 2 19.742628398870451 10.448434022954471 2 25.478510418928899 5.0143571530102315 2 29.443907015338468 11.70979102215545 2 30.849725808301109 13.018810538241937 2 32.732219543007758 6.5113384596043531 2 39.447446969956999 14.261947511665383 2 44.073151005446917 11.092015621202094 2 49.607250384161823 11.673845788486531 2 56.905581893949609 13.31392719889384 2 59.955452759763972 12.617859504646635 2 61.052968653448644 1.12 2 63.889994118596263 1.12 2 71.877673322777213 18.372545697444728 2 70.215087871543091 10.62173107776 2 72.135328599205579 13.852159980805 2 81.239619453553473 8.2992701741497132 2 85.344944754599425 7.3514638503993774 2 90.565700921142508 4.6097796989320248 2 96.46160257527545 6.0499184709882794 2 1.12 1.12 2 4.6401838699689222 2.5237631202603965 2 8.2760728960365029 9.5607588066904245 2 13.192170775050535 18.380961359675808 2 15.991534438278256 4.1080023754656985 2 16.807023646550803 13.427177976596736 2 19.604584952768363 1.2400000000000002 2 24.718437984413285 18.964694179701922 2 33.651337367047219 16.092213711759676 2 26.885983282877 1.8095369144093743 2 33.722341101816184 2.9528093531084347 2 36.427643867080533 5.3655351521463084 2 40.226820233425379 6.2215545342089618 2 43.547058870913396 2.4371198002416983 2 47.408319320999858 7.0878270603104561 2 56.636021811501173 2.6853588460957201 2 59.446564461513226 7.994049621824348 2 63.003766424974295 14.593590626568577 2 68.168467155424437 2.0600896385393148 2 73.146473045699807 1.12 2 77.389696528240052 12.849208112039427 2 75.123336893094944 1.12 2 83.386192946216852 3.4585108177803825 2 86.25973000954852 17.318521970159658 2 94.526445487362452 10.999093908650007 2 96.214612840135189 3.8005795822890702 2 1.12 12.450819387878122 2 5.1079388045407033 11.268381717350069 2 8.9107147935196434 4.4559478695626522 2 11.489633775247627 13.049754054256926 2 18.891914497849783 5.7447929083205462 2 20.451602516935917 12.767256168930095 2 22.329496959696765 4.5685991921538491 2 28.906189856230355 14.31995447574625 2 30.440340271418787 3.8661482300108347 2 32.93111617415456 12.355263362229241 2 36.420566888112972 8.9411223500865677 2 42.534486646754736 13.212796116479543 2 45.164441809218012 12.644004703446434 2 49.990089122170588 4.9239154355351227 2 59.188274144513045 18.577370751541057 2 62.816111489664976 12.036213046054689 2 66.821108466223322 17.254170531363584 2 69.536964988689959 15.318626513976884 2 73.513281773799463 5.0398368443601971 2 74.17436970050403 18.544921288225765 2 74.856189749100736 14.381823021501891 2 80.41261849416037 1.12 2 82.734839224537694 12.030564040355411 2 87.147693548722614 3.4670713690876771 2 94.250745975848133 3.0812894375627615 2 95.863391921303162 13.519421634733597 2 1.4366011289475957 4.176692702683277 2 2.8431924209741002 4.4560008746453663 2 9.1007128515650102 15.781618223801111 2 15.526345808770504 1.12 2 22.34923930586217 7.6957299187149992 2 27.283177939032893 2.9894460839645238 2 26.365058933597975 10.928006426886959 2 37.481751666775324 14.792142583483841 2 32.040035122644056 1.915345202032408 2 39.255818606070008 1.8554600316731624 2 43.940657181810785 1.12 2 42.98564868893429 5.5436039573791769 2 49.808622058288599 1.2400000000000002 2 55.50323100595471 6.0686899835058332 2 60.189450701758929 3.0687998435238959 2 65.073925897565985 11.343360939221233 2 70.557534902505807 3.4677164189354541 2 82.149885999361004 18.331024621883941 2 81.271335451910403 4.0250356903725457 2 88.415678696660081 18.141839965936761 2 91.000979670104158 2.1847530652484815 2 97.811819671117746 2.0426441752588449 2 11.612359328424429 5.2809804468266268 2 32.19003843090578 9.2080728286351388 2 43.663339401386786 7.6221484159248591 2 76.084284854121407 9.0174677284817903 2 76.908184151709136 8.513131346125288 2 77.450917486542906 4.1988798541239012 2 23.737285482203358 2.2744953066126019 2 64.481868160957546 7.9828248003114179 2 67.462111159463106 9.6036484776215296 2 79.406554086149185 6.4865883087270007 2 12.12188056541796 4.3006234307861382 2 26.769190366021789 8.3375698000980289 2 63.113749536468646 5.3559905346221406 2 66.588365529516281 4.6896991507039063 2 10.211890504786538 7.6090600608847661 2 15.045076640551406 9.2840350687103612 2 33.748380491486387 4.4863503222882715 2 61.658084098344219 6.7025891236818076 2 67.491294468553022 6.0107055362695263 2 68.692924031105548 4.592149516373861 2 74.020332013536134 4.3857435991857709 2 77.662586708731467 12.006498354754827 2 2.1165418504118274 9.3969642012137538 2 12.23363756442212 1.2400000000000002 2 29.89220621502141 8.403839212622481 2 28.876466334503593 16.259899923936992 2 33.462073524305538 6.8574875964912287 2 45.976054368609411 8.826651367659661 2 49.597563579336622 9.9715751810031303 2 56.960699901869461 11.032984371405119 2 68.421494655083521 18.775361352221523 2 70.853477403811169 8.3037932549486371 2 85.150717285458327 6.4616671888779145 2 90.252666862614475 5.7550015192204356 2 95.964938461046486 9.6521492756211824 2 1.946276114947658 2.4608858196043619 2 5.4386872310599683 2.1097561361487123 2 10.406253096670783 18.151820030499231 2 14.584234113173876 12.25284082523082 2 26.613979762366633 17.510119621156463 2 32.151398943111367 16.109259480741791 2 37.081691758893491 1.2400000000000002 2 41.457021371457998 3.1491631786276861 2 54.979173265169457 1.2400000000000002 2 60.120365746369849 3.9941303477543979 2 64.405875994807616 17.256454598561316 2 84.015044481246719 2.7929579808846432 2 82.626923437034236 16.337762542721176 2 92.969570034030355 7.8512593617666031 2 94.690386768203112 6.3377620467483826 2 1.4 16.767777411682296 2 6.4579668779626074 13.188785064773581 2 11.292866352994537 10.019824259768114 2 21.152408673634397 10.64242776879837 2 28.073725119502956 5.1506142502445771 2 37.797602737620508 9.487094901749062 2 45.119138428827817 18.156294254899272 2 76.972300956379485 15.72846591732455 2 81.196039341464356 13.685443119220524 2 84.635724163007282 2.3649966378157772 2 91.964129293862527 1.2400000000000002 2 98.139499476610339 10.884513368449959 2 1.2400000000000002 7.0864298439012066 2 16.762214388089273 2.5423259872337836 2 24.398497705179892 1.2400000000000002 2 23.105152137168954 13.863029415876806 2 35.822206946203174 16.053532385271961 2 53.885433396168175 3.2346245952805708 2 78.52630872026964 17.497721024266561 2 86.037893444202652 14.101649213152392 2 92.832972480746875 5.3081647883733707 2 95.694939487970331 1.2400000000000002 2 34.498167098500339 7.0464852733540457 2 41.20446379412072 13.592996823890003 2 48.290854176395797 12.081048401171882 2 57.045927774264428 12.006190684363242 2 72.948903256561394 20.346214682048849 2 80.525260775387537 8.6833999955022065 2 85.551283795124576 8.7245839021804699 2 14.432710660397461 15.851678554259644 2 16.679297170065134 15.161622440973996 2 18.908570962438347 1.2400000000000002 2 27.487001019518114 19.284083882601706 2 35.978331669238671 18.398349977917398 2 39.608208325925183 5.4796952183226741 2 57.389772875970039 3.3649665384551399 2 61.55621141643757 8.1368310872502416 2 62.311203452966772 18.06007458286102 2 84.270076325814529 15.201331265476641 2 5.7954072637775704 10.535356049324584 2 12.383061131861357 14.939934421858956 2 19.634416301063105 14.280036247182249 2 30.925675513027645 4.289308769880364 2 38.259001653382633 7.181013094521683 2 44.58916617886829 14.147917087970946 2 46.6974349578215 12.192592028644464 2 57.655343869035121 16.804007593352296 2 62.357730568484698 12.629224639538258 2 66.44653705890687 19.618642505406456 2 74.645150136653768 16.106662991870955 2 83.610717251792551 11.408179303381061 2 87.119037897466015 2.7052177245778286 2 95.005053557408431 3.3492299325058599 2 94.885366101635867 14.758628697024728 2 9.3871297949092476 13.146357023942398 2 24.848330480088823 11.300830514958525 2 39.120405797114344 1.2400000000000002 2 49.174224090828545 1.3390309259221942 2 56.194605402103733 6.3184828969086739 2 80.151755730766425 18.614900615296897 2 87.931156671751737 15.218099834589257 2 98.485869607366922 1.2400000000000002 2 3.8624657270968359 8.0241800875360987 2 7.8687705788174727 2.0426096026090903 2 15.222126241559252 8.518039605209518 2 19.401485656063617 8.3190339011937606 2 23.966936689642239 8.9619710204207035 2 40.004542212084644 11.265590504610467 2 61.174828867595082 15.349142388491844 2 60.147267068922069 1.12 2 65.155633773898472 1.9270997034633692 2 72.770287336920944 14.997752786072066 2 82.250897515132465 6.9772301953826465 2 7.3164265701342597 6.9464683539825831 2 16.189515565601866 5.8435127961047248 2 18.456748624868329 3.3214477939305564 2 28.075503297105655 2.8348499650148806 2 36.867559963889811 5.8814735811891854 2 46.119719077987284 1.5946700479117657 2 46.921582627783046 5.796527036245525 2 67.557028499780202 2.3669432439014964 2 72.700249974881146 2.4252528368769859 2 79.371517269396179 14.80778711169158 2 75.621469377342478 2.2843566055342803 2 7.1833205280751553 3.2838576612212331 2 18.584394063867126 8.1261376135202532 2 24.602480061748604 6.3593101506421039 2 26.717020299058063 13.280610574950639 2 34.868751328267685 11.875606046349963 2 41.426976415371598 10.067089227786672 2 49.331725429756048 6.913591025954271 2 59.278673807771199 14.852806224399595 2 59.536851550999216 9.900437054959891 2 68.870688055356098 12.752135209526363 2 70.98480643871595 12.30344552665486 2 74.514864226089202 5.289583613504746 2 73.517571731571493 11.238694848020415 2 79.601217867282486 1.5579435504764525 2 4.6805276544639201 5.1486661128054827 2 7.5200106133857014 12.765984437061089 2 21.045559452445975 4.8218353984272104 2 32.127984693179911 1.12 2 36.80822688708993 3.4177237772391442 2 40.161647318771244 2.2260869744597689 2 45.507856470606299 3.9013696803199887 2 47.622023862625696 3.006193860059315 2 57.425025509578624 2.1941740261702454 2 65.925585283303235 13.850202579970796 2 71.053287295174002 1.7854314822209887 2 83.486086086724839 5.9217350042881041 2 2.9095864713960822 13.214525873014425 2 4.578457701188194 7.6501569761443999 2 11.033998341436606 3.0054649965787497 2 10.268510445150596 1.12 2 18.165251383683767 12.740199615869871 2 18.98761865784034 11.246524647583424 2 25.564561873600599 7.2212828813149503 2 28.765074590206641 11.103153532496032 2 31.973581225634007 11.756792324599143 2 44.294828665265875 10.369911169884398 2 59.652853676413024 13.358780199486983 2 61.641499487807835 1.6751471418998503 2 64.76561129569302 1.12 2 69.469675773406109 10.551194574216634 2 71.568149915469562 13.166125457164194 2 92.062836166284455 5.6435396615140352 2 96.720345034143506 6.9858931012994336 2 2.5791867099114154 2.0428369349777369 2 4.4965226905208802 3.216051814673083 2 7.6491118256518034 9.0727061077904541 2 15.01930887896081 4.8753251235679675 2 27.426480898870036 1.12 2 32.908944317189608 1.7583855315360319 2 35.602833217718249 3.216727272729357 2 43.408764130885906 3.2615208242741156 2 48.601097771006799 7.3702816946612772 2 67.148609079737767 1.12 2 71.11794146178346 1.12 2 78.650788963744219 13.915598566728358 2 76.745565669167974 1.12 2 84.069528079373555 3.9766708063597038 2 95.525380013230162 11.60301073752515 2 96.199486445006841 4.9842960817767548 2 1.12 11.623200268847505 2 8.9008038003642067 5.0967243351387488 2 18.295706604407183 5.4951266491874176 2 21.918055754410211 5.182887408165417 2 30.635836701707809 14.127561577434546 2 32.547181675375043 13.572356599294052 2 50.317634510367434 4.2252374672737618 2 70.336975492826767 15.387806730758481 2 72.80840367681607 6.357131175347746 2 75.545802457423761 15.587225825785158 2 80.047987749636519 2.1867599940791291 2 1.12 4.9815517631457116 2 2.2165602042758561 4.7806044962042744 2 17.753553360465624 1.12 2 21.605190850995967 8.1772230023501731 2 28.778091636958973 1.2846524241984245 2 36.226666719739953 13.20502313968257 2 34.290663654764742 2.2857746397845808 2 43.392487765020348 1.12 2 43.63661603077994 5.6385926486500466 2 59.593511634865806 3.5459202939164411 2 65.623235497721879 10.143346143066321 2 71.963346273209822 2.9690166650166598 2 81.209864137068308 3.3967136638792814 2 90.191296867569207 2.1775758859093757 2 13.083014981423808 7.688352941417361 2 31.826648984549696 9.8720829370446204 2 42.029378646484481 8.3791536093990739 2 73.237398250444812 8.5059212675471709 2 75.837715814968988 9.9678779538448907 2 78.012169214369322 3.0366768706701608 2 25.60164262452864 5.854945383813452 2 65.60709062753763 9.0535319199463036 2 65.728222959670745 11.913235819847948 2 78.857019831377016 6.924796009983055 2 12.826014217099573 4.0567620167539555 2 26.50987153341142 9.0258433177244228 2 62.476088058316577 6.439932782730831 2 65.320885495150037 4.6185686833603183 2 8.7760252556284986 6.7191003220340555 2 14.443207049144325 10.416642223330811 2 34.40204645789332 4.8624012561821264 2 61.037414093204319 6.3625316568000354 2 67.188346425392183 7.3029831013465687 2 68.252838669951856 5.2734666840500717 2 77.189419379167774 6.1730160527762798 2 79.828218634556819 9.3149272915048797 2 12.344234362126471 5.5029793300880385 2 32.977590814036162 10.163781706472685 2 42.907640599821526 7.554507539344276 2 75.199538685167454 8.7823900809947109 2 76.14934008325848 7.9331400771497869 2 76.761686306607885 3.6615034426021125 2 23.846084711529183 3.0362575529255684 2 64.918963655226023 7.2821571398755625 2 66.768379490543978 10.293541934858538 2 79.332945296868004 5.7179564708428607 2 11.133131552587175 4.6980032757998584 2 27.896325108887972 8.6090858455345334 2 62.730332277604916 4.7359252113641972 2 66.441276001598325 3.7394940182117598 2 9.8124182182822395 6.8333252926522068 2 13.918427768294135 8.8022203594545942 2 34.844024320313636 4.1254867090769087 2 62.957579813575293 7.0261514813754573 2 67.1316481969167 5.3014340046400239 2 69.426725817827545 4.0718153950807547 2 72.962492873556329 4.6188331313002546 2 77.782095088976803 11.114803148587523 2 </DataArray>
</Points>
<Cells>
<DataArray Name="connectivity" format="ascii" type="Int32">0</DataArray>
<DataArray Name="offsets" format="ascii" type="Int32">0</DataArray>
<DataArray Name="types" format="ascii" type="UInt8">1</DataArray>
</Cells>
<PointData>