<?xml version="1.0" ?>
<VTKFile byte_order="LittleEndian" type="UnstructuredGrid" version="0.1">
<UnstructuredGrid>
<Piece NumberOfCells="0" NumberOfPoints="829">
<Points>
<DataArray NumberOfComponents="3" format="ascii" type="Float32">25.783752649253071 0.7 2 64.194314944762837 12.489850761798413 2 67.022504600068444 0.7 2 72.717083241240971 9.4535929704158939 2 71.960880890218732 7.4998967631092022 2 74.253426473209586 0.7 2 14.638572338206576 6.6960258617105497 2 32.09136765428989 10.520495298192481 2 72.369635388868474 8.0620042534597527 2 67.162536158487256 7.9954323539935093 2 28.246565387675858 3.5742896916967557 2 71.874702245930479 4.7790044928518585 2 71.035534532549093 6.7445165963616844 2 76.838542584208525 4.7067216802461136 2 81.288224777767823 11.159077956544706 2 10.963334630583162 8.8806775866363807 2 27.256064285891068 9.9899488407519588 2 30.758360949088697 8.9259720269651908 2 40.63198617355237 6.7372436801282616 2 72.120499960607958 8.6972662865877428 2 72.88893795920265 8.9536188493701214 2 77.113257440018899 6.8000577554012347 2 77.726682391097953 0.7 2 29.105419935506958 3.5268471065918421 2 60.982659491646963 4.4063749268023757 2 64.423686742103328 9.6420129756985631 2 69.511391397604413 7.6467607144393748 2 75.666898955945342 11.852762412726499 2 77.881189056989086 7.036100270578582 2 11.020605942233987 3.8942387703806389 2 13.665824533094693 11.327322546221106 2 27.457209967301583 9.3147615322993218 2 30.527780023104306 5.9895699029896159 2 35.465117303808341 8.4805588168261234 2 62.969478795263072 3.8737948046907791 2 66.582275275662994 0.7 2 68.644469322288415 8.8301929234422509 2 75.157464471141026 11.28009593390327 2 10.302578203995909 9.4104775814692943 2 15.27318905467162 11.466982761605436 2 23.954085435725926 10.605071747192564 2 30.864017926590751 2.5928193197326288 2 61.473775660289192 9.5492869222803005 2 67.722478864844874 3.0676286259998191 2 63.432486104300452 9.3138490913311216 2 71.427899337947679 5.3207814967703735 2 74.508726696912817 1.8327671133601955 2 80.244071253696802 11.409549291697132 2 78.310866098843078 2.5457030271659535 2 14.002559657141742 0.7 2 12.775827897744559 8.8107443443822149 2 26.242735367279156 9.1525096338189886 2 30.044675906592872 6.8442994316984906 2 31.602246366079882 6.103999723626031 2 34.530492929822856 8.1166830833069774 2 40.689293560053962 7.6853884272341411 2 44.866023336531093 6.2374383803369025 2 62.09388041416863 3.5683065500818478 2 62.916981309116665 1.7310302077665405 2 72.266900190328897 6.7487873647751782 2 74.513906010702868 10.601385263481076 2 79.179013476823584 3.4799787488000589 2 81.638459891116952 10.484475958784833 2 17.037289631621487 3.4225779338047193 2 27.416009450292194 3.6146263549845203 2 29.45320925039529 3.9852550346745721 2 41.758401126199978 5.4955481090007581 2 62.527559699987016 9.414126293991874 2 68.829009159616163 7.8244575500445448 2 66.375121945701224 1.5022756303371116 2 77.692441626494272 7.8086342173516963 2 9.8701305757057654 4.2174873380820541 2 14.553850415689848 0.7 2 17.671488188032079 3.7595200465117373 2 28.443100429648347 4.2035115955928202 2 28.949390974306095 6.6020370370416606 2 63.225709243642832 2.8892523175445559 2 66.564413693962791 2.5349352247390224 2 73.832176477575203 2.4161614164109815 2 78.185567115374056 0.7 2 7.3476023873023095 5.1755459664282215 2 14.581520203332685 5.9285680091930431 2 30.4072787069151 3.2117129813831524 2 31.485750477957634 4.8019525473310631 2 44.462408843185543 6.8621349886728602 2 62.600912847663977 8.7088492668608968 2 69.83901599618892 5.8073866314005311 2 68.142488120442849 11.335360975177144 2 70.385789082705386 5.937616542166249 2 71.195434893062696 4.3055570265744523 2 76.151070489266672 4.565416600907616 2 80.38510682211006 10.756647439021336 2 6.7261231122657517 0.7 2 10.481825912068494 3.9075062345675735 2 13.60837008426633 5.9532705118629687 2 15.675591926629927 12.250097981950113 2 23.576451811843043 7.016697320373507 2 30.730912906516664 6.7014472197651491 2 41.607033023725236 4.6947669886962613 2 62.563772253786766 3.1950454911033317 2 62.697441673917446 0.7 2 76.723410320453723 5.5309407872065632 2 75.675132032188586 10.880300470446945 2 78.685436036985237 0.7 2 80.945931800632934 9.9508906910892012 2 6.8568577174263625 5.9073514720688189 2 13.815162733435711 4.7755539537818237 2 27.584232430947857 4.6022008399761543 2 36.367255307279542 0.7 2 40.697648834429195 4.7963562366210688 2 63.402959721066267 7.5794072638642618 2 69.240623185166001 8.3612671114270363 2 69.1984770435418 2.7759346193019785 2 72.863277846022925 3.2062340274877359 2 74.656917139058052 0.7 2 77.986236305944132 5.1767675510511006 2 81.285326704446916 2.6420595276300007 2 8.057932554746932 0.7 2 13.185860898424759 1.8624849664580139 2 12.744741186394483 11.952776143269086 2 15.573460128392059 6.2141311169097833 2 23.295400178477102 3.0221963439080661 2 28.492252389023271 5.9806102490502928 2 64.059447508263858 3.6285703268722296 2 64.781951063528297 2.7730514965592312 2 72.688981936067165 10.20487386250343 2 71.614920941728499 7.0568106966083608 2 81.884763896874915 0.7 2 10.78666234428125 4.8510360127456646 2 13.995681378908573 6.7059752404340482 2 31.124871296806148 3.4779171078159892 2 31.605981379213411 4.0291894277937557 2 40.881310524140083 0.7 2 42.563790914687054 4.3963673855615335 2 62.762159598376364 8.0807800822814748 2 66.835318091320786 2.9834110673916929 2 70.851030901226665 4.9040353571555144 2 70.284769146035728 3.8310056544608821 2 75.31604719921738 3.5676630455559932 2 78.636684191789982 7.6881631782245607 2 79.618573480032552 4.2714554409719918 2 92.932824773131756 6.2741057516828578 2 13.464779242634858 7.5985683385121119 2 30.949400436076225 8.0509757350018347 2 75.743785977343038 6.8474124307804489 2 74.052028889084951 9.0600777947496631 2 75.71167221112529 4.0399924348496556 2 26.599348347973169 3.0160186422753537 2 63.381093340850946 8.5650373578075367 2 65.939378247819135 8.6064230076014141 2 77.346536504839193 5.2924690992744567 2 12.359361477038501 2.2191614713432677 2 28.244891913132701 9.4021117556046203 2 64.947346634729229 5.3139655412922648 2 64.316946109992998 4.2351492974412723 2 9.6565399101286875 9.1607154392873138 2 12.459498278734864 10.656722822796731 2 33.089702544421257 5.4814427903447358 2 60.728281017894048 5.0626984472446983 2 69.703740220080576 6.8946869165445097 2 70.77251423581987 5.4861770631813167 2 74.098953841042658 3.0942091766588229 2 79.370186506802398 8.1904810336626834 2 6.2003898558381652 8.7142089409662198 2 9.3529435142014261 0.7 2 15.324219618435198 6.8557189103928602 2 20.095877527801761 5.6225634527585324 2 26.151434554015726 6.7477943214041316 2 32.715238979656959 13.722730875753264 2 40.04313798225985 8.2871871247705879 2 61.81065889108573 11.539963077075862 2 61.367059989244972 3.7326425975689017 2 66.131646055173718 0.7 2 67.74995774572028 15.026223493534967 2 70.324453736298153 12.159065707405283 2 80.750108950197912 7.0835402653890158 2 6.3189128274484139 7.58317381202676 2 17.62505956800975 4.5540115054865451 2 21.063443042389771 2.6698385040016923 2 29.886641237132427 2.9135310991111267 2 34.605394410620811 0.7 2 38.750174153006526 4.7741561567424977 2 45.52637281975327 2.5755645508388887 2 48.490435185044205 4.0662730367911006 2 65.579470364941187 17.189555788433076 2 68.942136282426389 0.7 2 73.89915844831998 1.7323556328963796 2 79.137442688638956 12.170287314206307 2 76.650496276844422 0.7 2 83.083194635472907 0.7 2 7.383425508109136 4.1825713775379176 2 16.626021111485251 6.8363586221169799 2 23.459433290104418 4.332014602395696 2 27.20859245571279 11.290704724822289 2 32.824746345690805 10.098031586515361 2 41.671097273583818 11.876441942621067 2 51.138016975393242 6.7828227182600855 2 58.781917144613153 11.639126713648691 2 62.846664898183924 10.62923973676563 2 67.13782909175697 11.494479379806361 2 71.837371605191677 9.3381318386223189 2 74.180102720669638 7.0305722133485702 2 74.015712491163214 9.6346810628237272 2 82.560390630787566 1.5069691670015157 2 3.9474249093549001 4.238106783462972 2 10.006459615833057 10.088834833671219 2 20.130195255759226 4.7225263519016902 2 29.819111731772889 2.3366346564203244 2 38.664885226594642 4.0552148042495002 2 40.247985899886544 0.7 2 45.660748928909157 3.1796153895999568 2 48.917748330626218 3.3912990746520952 2 59.79029052648594 0.7 2 66.427903080277019 12.470921323482814 2 69.781252934925064 0.7 2 82.081645346767871 2.3588662899272448 2 93.461173592344096 3.4097494911073012 2 1.9353629972153426 9.7395538131203327 2 3.9108386795289958 6.3760087640220098 2 9.5060876531510416 3.3522233790101663 2 11.481716731869403 2.9836146563655546 2 15.093805169684941 10.366009546904401 2 18.028934825579036 9.7706908572757278 2 27.707279709149198 6.0515505452520824 2 27.882086831493915 10.61744828830763 2 31.640226399699642 14.147800910319257 2 43.544352803346065 11.805855660851403 2 58.706416193550439 10.515816401947266 2 62.684581552146923 2.3948707589839673 2 64.092807295820577 3.0595846772937243 2 71.56012707107493 8.3230105855065357 2 71.961878468667749 10.054654562244586 2 92.833593999581637 3.7979194258240265 2 94.257396917864398 7.375648637989026 2 0.7 3.6325232363537467 2 3.3368586749061921 0.7 2 7.3720118723439771 11.513176694738583 2 14.071762741666896 2.2179877360271494 2 34.020795665110732 16.740822056351789 2 26.337222254330264 0.7 2 35.278467395261586 1.9001724307578911 2 35.921156205740303 1.8779156078220411 2 44.832732783768286 3.0782648421149954 2 47.167896539165326 8.5180220768161821 2 66.890400137258297 1.8868618842826708 2 73.852195578226159 0.7 2 79.317336874692771 11.246758898130464 2 75.850881480799558 2.8958316585506134 2 81.997367547670549 3.0678539110627678 2 95.046397849974852 8.1537443399569067 2 95.662454172923162 2.5297516477897664 2 0.7 8.9578493393646355 2 6.8532444528511052 8.5421297468070847 2 10.168880163910384 5.1372101380917066 2 10.608406110121765 13.659411928041889 2 16.34768794610974 6.1920924178742345 2 23.166501918707766 
[...]
<PointData>
<DataArray Name="Points" NumberOfComponents="3" format="ascii" type="Float32">25.783752649253071 0.7 2 64.194314944762837 12.489850761798413 2 67.022504600068444 0.7 2 72.717083241240971 9.4535929704158939 2 71.960880890218732 7.4998967631092022 2 74.253426473209586 0.7 2 14.638572338206576 6.6960258617105497 2 32.09136765428989 10.520495298192481 2 72.369635388868474 8.0620042534597527 2 67.162536158487256 7.9954323539935093 2 28.246565387675858 3.5742896916967557 2 71.874702245930479 4.7790044928518585 2 71.035534532549093 6.7445165963616844 2 76.838542584208525 4.7067216802461136 2 81.288224777767823 11.159077956544706 2 10.963334630583162 8.8806775866363807 2 27.256064285891068 9.9899488407519588 2 30.758360949088697 8.9259720269651908 2 40.63198617355237 6.7372436801282616 2 72.120499960607958 8.6972662865877428 2 72.88893795920265 8.9536188493701214 2 77.113257440018899 6.8000577554012347 2 77.726682391097953 0.7 2 29.105419935506958 3.5268471065918421 2 60.982659491646963 4.4063749268023757 2 64.423686742103328 9.6420129756985631 2 69.511391397604413 7.6467607144393748 2 75.666898955945342 11.852762412726499 2 77.881189056989086 7.036100270578582 2 11.020605942233987 3.8942387703806389 2 13.665824533094693 11.327322546221106 2 27.457209967301583 9.3147615322993218 2 30.527780023104306 5.9895699029896159 2 35.465117303808341 8.4805588168261234 2 62.969478795263072 3.8737948046907791 2 66.582275275662994 0.7 2 68.644469322288415 8.8301929234422509 2 75.157464471141026 11.28009593390327 2 10.302578203995909 9.4104775814692943 2 15.27318905467162 11.466982761605436 2 23.954085435725926 10.605071747192564 2 30.864017926590751 2.5928193197326288 2 61.473775660289192 9.5492869222803005 2 67.722478864844874 3.0676286259998191 2 63.432486104300452 9.3138490913311216 2 71.427899337947679 5.3207814967703735 2 74.508726696912817 1.8327671133601955 2 80.244071253696802 11.409549291697132 2 78.310866098843078 2.5457030271659535 2 14.002559657141742 0.7 2 12.775827897744559 8.8107443443822149 2 26.242735367279156 9.1525096338189886 2 30.044675906592872 6.8442994316984906 2 31.602246366079882 6.103999723626031 2 34.530492929822856 8.1166830833069774 2 40.689293560053962 7.6853884272341411 2 44.866023336531093 6.2374383803369025 2 62.09388041416863 3.5683065500818478 2 62.916981309116665 1.7310302077665405 2 72.266900190328897 6.7487873647751782 2 74.513906010702868 10.601385263481076 2 79.179013476823584 3.4799787488000589 2 81.638459891116952 10.484475958784833 2 17.037289631621487 3.4225779338047193 2 27.416009450292194 3.6146263549845203 2 29.45320925039529 3.9852550346745721 2 41.758401126199978 5.4955481090007581 2 62.527559699987016 9.414126293991874 2 68.829009159616163 7.8244575500445448 2 66.375121945701224 1.5022756303371116 2 77.692441626494272 7.8086342173516963 2 9.8701305757057654 4.2174873380820541 2 14.553850415689848 0.7 2 17.671488188032079 3.7595200465117373 2 28.443100429648347 4.2035115955928202 2 28.949390974306095 6.6020370370416606 2 63.225709243642832 2.8892523175445559 2 66.564413693962791 2.5349352247390224 2 73.832176477575203 2.4161614164109815 2 78.185567115374056 0.7 2 7.3476023873023095 5.1755459664282215 2 14.581520203332685 5.9285680091930431 2 30.4072787069151 3.2117129813831524 2 31.485750477957634 4.8019525473310631 2 44.462408843185543 6.8621349886728602 2 62.600912847663977 8.7088492668608968 2 69.83901599618892 5.8073866314005311 2 68.142488120442849 11.335360975177144 2 70.385789082705386 5.937616542166249 2 71.195434893062696 4.3055570265744523 2 76.151070489266672 4.565416600907616 2 80.38510682211006 10.756647439021336 2 6.7261231122657517 0.7 2 10.481825912068494 3.9075062345675735 2 13.60837008426633 5.9532705118629687 2 15.675591926629927 12.250097981950113 2 23.576451811843043 7.016697320373507 2 30.730912906516664 6.7014472197651491 2 41.607033023725236 4.6947669886962613 2 62.563772253786766 3.1950454911033317 2 62.697441673917446 0.7 2 76.723410320453723 5.5309407872065632 2 75.675132032188586 10.880300470446945 2 78.685436036985237 0.7 2 80.945931800632934 9.9508906910892012 2 6.8568577174263625 5.9073514720688189 2 13.815162733435711 4.7755539537818237 2 27.584232430947857 4.6022008399761543 2 36.367255307279542 0.7 2 40.697648834429195 4.7963562366210688 2 63.402959721066267 7.5794072638642618 2 69.240623185166001 8.3612671114270363 2 69.1984770435418 2.7759346193019785 2 72.863277846022925 3.2062340274877359 2 74.656917139058052 0.7 2 77.986236305944132 5.1767675510511006 2 81.285326704446916 2.6420595276300007 2 8.057932554746932 0.7 2 13.185860898424759 1.8624849664580139 2 12.744741186394483 11.952776143269086 2 15.573460128392059 6.2141311169097833 2 23.295400178477102 3.0221963439080661 2 28.492252389023271 5.9806102490502928 2 64.059447508263858 3.6285703268722296 2 64.781951063528297 2.7730514965592312 2 72.688981936067165 10.20487386250343 2 71.614920941728499 7.0568106966083608 2 81.884763896874915 0.7 2 10.78666234428125 4.8510360127456646 2 13.995681378908573 6.7059752404340482 2 31.124871296806148 3.4779171078159892 2 31.605981379213411 4.0291894277937557 2 40.881310524140083 0.7 2 42.563790914687054 4.3963673855615335 2 62.762159598376364 8.0807800822814748 2 66.835318091320786 2.9834110673916929 2 70.851030901226665 4.9040353571555144 2 70.284769146035728 3.8310056544608821 2 75.31604719921738 3.5676630455559932 2 78.636684191789982 7.6881631782245607 2 79.618573480032552 4.2714554409719918 2 92.932824773131756 6.2741057516828578 2 13.464779242634858 7.5985683385121119 2 30.949400436076225 8.0509757350018347 2 75.743785977343038 6.8474124307804489 2 74.052028889084951 9.0600777947496631 2 75.71167221112529 4.0399924348496556 2 26.599348347973169 3.0160186422753537 2 63.381093340850946 8.5650373578075367 2 65.939378247819135 8.6064230076014141 2 77.346536504839193 5.2924690992744567 2 12.359361477038501 2.2191614713432677 2 28.244891913132701 9.4021117556046203 2 64.947346634729229 5.3139655412922648 2 64.316946109992998 4.2351492974412723 2 9.6565399101286875 9.1607154392873138 2 12.459498278734864 10.656722822796731 2 33.089702544421257 5.4814427903447358 2 60.728281017894048 5.0626984472446983 2 69.703740220080576 6.8946869165445097 2 70.77251423581987 5.4861770631813167 2 74.098953841042658 3.0942091766588229 2 79.370186506802398 8.1904810336626834 2 6.2003898558381652 8.7142089409662198 2 9.3529435142014261 0.7 2 15.324219618435198 6.8557189103928602 2 20.095877527801761 5.6225634527585324 2 26.151434554015726 6.7477943214041316 2 32.715238979656959 13.722730875753264 2 40.04313798225985 8.2871871247705879 2 61.81065889108573 11.539963077075862 2 61.367059989244972 3.7326425975689017 2 66.131646055173718 0.7 2 67.74995774572028 15.026223493534967 2 70.324453736298153 12.159065707405283 2 80.750108950197912 7.0835402653890158 2 6.3189128274484139 7.58317381202676 2 17.62505956800975 4.5540115054865451 2 21.063443042389771 2.6698385040016923 2 29.886641237132427 2.9135310991111267 2 34.605394410620811 0.7 2 38.750174153006526 4.7741561567424977 2 45.52637281975327 2.5755645508388887 2 48.490435185044205 4.0662730367911006 2 65.579470364941187 17.189555788433076 2 68.942136282426389 0.7 2 73.89915844831998 1.7323556328963796 2 79.137442688638956 12.170287314206307 2 76.650496276844422 0.7 2 83.083194635472907 0.7 2 7.383425508109136 4.1825713775379176 2 16.626021111485251 6.8363586221169799 2 23.459433290104418 4.332014602395696 2 27.20859245571279 11.290704724822289 2 32.824746345690805 10.098031586515361 2 41.671097273583818 11.876441942621067 2 51.138016975393242 6.7828227182600855 2 58.781917144613153 11.639126713648691 2 62.846664898183924 10.62923973676563 2 67.13782909175697 11.494479379806361 2 71.837371605191677 9.3381318386223189 2 74.180102720669638 7.0305722133485702 2 74.015712491163214 9.6346810628237272 2 82.560390630787566 1.5069691670015157 2 3.9474249093549001 4.238106783462972 2 10.006459615833057 10.088834833671219 2 20.130195255759226 4.7225263519016902 2 29.819111731772889 2.3366346564203244 2 38.664885226594642 4.0552148042495002 2 40.247985899886544 0.7 2 45.660748928909157 3.1796153895999568 2 48.917748330626218 3.3912990746520952 2 59.79029052648594 0.7 2 66.427903080277019 12.470921323482814 2 69.781252934925064 0.7 2 82.081645346767871 2.3588662899272448 2 93.461173592344096 3.4097494911073012 2 1.9353629972153426 9.7395538131203327 2 3.9108386795289958 6.3760087640220098 2 9.5060876531510416 3.3522233790101663 2 11.481716731869403 2.9836146563655546 2 15.093805169684941 10.366009546904401 2 18.028934825579036 9.7706908572757278 2 27.707279709149198 6.0515505452520824 2 27.882086831493915 10.61744828830763 2 31.640226399699642 14.147800910319257 2 43.544352803346065 11.805855660851403 2 58.706416193550439 10.515816401947266 2 62.684581552146923 2.3948707589839673 2 64.092807295820577 3.0595846772937243 2 71.56012707107493 8.3230105855065357 2 71.961878468667749 10.054654562244586 2 92.833593999581637 3.7979194258240265 2 94.257396917864398 7.375648637989026 2 0.7 3.6325232363537467 2 3.3368586749061921 0.7 2 7.3720118723439771 11.513176694738583 2 14.071762741666896 2.2179877360271494 2 34.020795665110732 16.740822056351789 2 26.337222254330264 0.7 2 35.278467395261586 1.9001724307578911 2 35.921156205740303 1.8779156078220411 2 44.832732783768286 3.0782648421149954 2 47.167896539165326 8.5180220768161821 2 66.890400137258297 1.8868618842826708 2 73.852195578226159 0.7 2 79.317336874692771 11.246758898130464 2 75.850881480799558 2.8958316585506134 2 81.997367547670549 3.0678539110627678 2 95.046397849974852 8.1537443399569067 2 95.662454172923162 2.5297516477897664 2 0.7 8.9578493393646355 2 6.8532444528511052 8.5421297468070847 2 10.168880163910384 5.1372101380917066 2 10.608406110121765 13.659411928041889 2 16.34768794610974 6.1920924178742345 2 23.166501918707766 6.0875533131361497 2 27.90037409440863 14.450656390992872 2 32.912399577727513 14.523339435511941 2 42.622131139202409 11.532695447580219 2 44.37650870345329 12.379580082689641 2 51.528101690234557 5.1956680116215672 2 63.253401108647431 9.9102212398146499 2 66.71310896091272 15.174605071139322 2 69.753457320380576 13.074416483780267 2 72.55348400652143 4.0000892737118763 2 73.462805088259216 14.235176493411668 2 79.234065413821995 0.7 2 93.65520134074761 0.7 2 2.6210800087858539 2.9729686592785969 2 4.8837974980080237 3.4127801669418867 2 15.240682992664809 2.63652829583111 2 20.741085339869191 5.6017245164623795 2 26.214746280959922 1.6897743498437054 2 26.385103389363621 11.513025751294743 2 33.603254242057069 12.939484973258363 2 34.052761728504919 0.7 2 42.10274863359647 0.7 2 43.570443400427536 3.7743814242983404 2 58.822849742931318 3.6702353470774027 2 64.21772990423095 11.516773127256574 2 71.721505353335004 4.1121372051033456 2 79.826017053446293 3.4628144390908338 2 93.341449691870565 2.6341921431157624 2 4.6347004095916047 6.2994472598617737 2 9.4197273254223646 2.5866966828048614 2 13.852006350912204 1.4269785201290126 2 11.787987794665495 8.6514051383200066 2 16.702022519118106 9.6941566665491958 2 20.735521219888302 8.3256178974714974 2 24.972505225456217 7.4605367194978367 2 29.204955629624457 9.1612577709407965 2 34.565773729694833 8.9115529072061914 2 35.061739119657084 5.7555228772732159 2 40.705094105095981 8.9866626635741618 2 41.89402286421997 8.9065070605538121 2 45.454079631095716 10.069556480894297 2 50.674041639127388 7.4061718939136467 2 59.213357828202781 15.677182036409496 2 62.184525269576731 0.7 2 65.675517186755101 0.7 2 68.486171238520953 15.486997454067785 2 70.361074601397888 6.6212279159431384 2 72.903850277283425 7.6024382632702521 2 70.599903567265031 13.022449018085521 2 76.650851325837081 10.07522809529446 2 78.115555664938285 1.9727263562431874 2 80.736353193040969 6.049549493395836 2 85.495359562070675 3.4748059404578537 2 97.777046487686505 7.0732731879244914 2 0.7 0.7 2 5.9724855792314004 0.7 2 7.3117658152400544 7.909651386860153 2 16.757306485515006 5.506956025794441 2 15.248029744571044 14.567941592706291 2 19.259864935682934 4.4031213429547309 2 25.267548391297378 3.6078215763704038 2 30.806520494776784 1.8708892149921625 2 37.993955218248864 4.1572303872470631 2 41.016823535009699 4.2536397216622381 2 44.1656351031139 0.7 2 48.267685366096813 3.155366628528768 2 59.278040386533256 7.0400278935087357 2 65.364310512750137 5.8158316907439396 2 68.166589073823914 10.632260358586002 2 69.955263797861789 2.0333341706217576 2 73.413999313120911 0.7 2 77.448690882224909 14.80608599230483 2 77.941326213670962 1.4051117776376409 2 80.539131676770722 5.0175309921339029 2 97.894316776037002 5.8052941790295591 2 6.8849982229406637 3.8848285906211473 2 13.950139167269601 3.0965106336717616 2 10.384334591309727 10.840613633092872 2 17.102340312130799 7.5789356856725014 2 24.551994332140772 3.3730621878418972 2 26.893730383611722 6.5670591281017172 2 27.752391710908583 13.520714451637719 2 29.466077845613121 6.3194862173578965 2 35.618809258889584 9.1919725687531884 2 38.106106255662525 8.2650414250247799 2 42.418058091504584 9.4160037205455538 2 49.004635192340984 8.1675249671997321 2 56.99668231325326 14.02036584116669 2 62.13432860174229 9.9759053675368712 2 64.4290896185572 6.4542073767474299 2 67.858250867306964 4.1131015506516926 2 67.437992413444277 14.20181881757253 2 69.153522130409996 11.669979699063116 2 71.162163213003495 6.1616927299685091 2 76.609510053016777 17.199618162479211 2 73.464638260537882 9.8953585953985517 2 82.431959305057831 0.7 2 80.079404617687061 12.108819972971167 2 96.572761486870519 12.104442877199119 2 2.5867688956888109 6.0536706607325872 2 5.8492781436282639 6.1025033002679576 2 9.1730860374861294 8.6272109829189283 2 11.059337080777629 11.774710963849317 2 14.610008398367729 10.783320715924473 2 20.204704499749017 3.3891498568476508 2 29.977928224392929 0.7 2 32.383998694944772 4.4055614854815683 2 38.940762925552171 3.452421565426266 2 42.802686338292361 0.7 2 44.76755886708942 5.5110623757765964 2 49.295707485738681 2.5150015324028465 2 55.339926352673793 2.5050395733218793 2 59.265340108779846 0.7 2 62.738732417826711 7.3642114483369889 2 68.454312809078758 7.2952552574073737 2 64.381355748091877 13.412576752485519 2 69.37836127628718 6.3849225328672423 2 71.03500338403056 0.7 2 74.905927598688635 4.0482883491049924 2 79.30986288040242 10.463919268521046 2 81.66001348554866 3.6687431053423762 2 96.729152293494138 0.7 2 2.6870877860037083 10.120367003817382 2 5.5015317709664942 9.5901319892464976 2 8.4816031927528392 3.5576565447757833 2 10.06621812033447 0.7 2 17.380060214854357 9.642913646051495 2 18.209172878208296 8.0435413025520557 2 27.449210019004234 5.2992745805222912 2 28.540814536465092 9.974643209834781 2 31.453356165269604 9.8059649367681843 2 31.432788766063954 6.8031047541935479 2 42.828159891910055 10.427979878305997 2 62.031367940535425 10.698606030909483 2 61.376911972764162 3.1256500940816201 2 63.637916493530362 0.7 2 71.248624911964157 9.3889963468044986 2 71.456393848471379 11.813068380319994 2 82.172024669694437 8.2026965855616307 2 92.327579282695922 6.8102705641443171 2 94.809339569228399 6.9806271872180199 2 0.7 2.827615543981898 2 4.7210417512066929 0.7 2 9.170942782864298 10.21329810747188 2 12.583376438018336 15.305450344393483 2 14.508375092697536 2.7938733018486164 2 20.075510502237922 0.7 2 26.905820871409851 0.7 2 34.592599428362426 1.5313750315347314 2 36.557196217937495 2.0144034288886656 2 39.795142422543329 4.1949833766117335 2 44.236474929462219 3.349503269130043 2 48.008477619549573 8.1377096759157119 2 55.995719358356787 3.7460107455824008 2 59.772233089339252 8.1946047367317849 2 61.46161407149139 17.06162402268232 2 69.400606177549179 0.7 2 72.600380352307255 0.7 2 78.589854473625351 11.281814340084916 2 74.567384570867645 2.5691954352252258 2 82.87837727378222 2.025698173620877 2 94.9933153136176 8.9557294907139759 2 97.305340471629151 2.536746365686307 2 0.7 9.6931928112564911 2 9.4268875040857019 5.5747106358305691 2 11.889255010152667 11.503459216772693 2 17.428074962295948 5.258061077160697 2 22.322408589678343 2.5473274547228018 2 28.069712356889585 11.822243479340905 2 31.042531289108371 5.5720292058984624 2 33.227136990693587 10.751002896833734 2 38.226884650341866 6.0799087010698543 2 49.60294015889837 3.1979671491658133 2 68.228718017783379 13.806198192649987 2 74.291650696666139 6.0857020155831449 2 74.683338227443457 12.00412202896695 2 81.251988669010018 0.7 2 0.7 4.9626386421430739 2 3.3708564640868821 5.8862173084879563 2 14.3740320415321 1.6759665844112668 2 22.661281266059891 5.6946214705237344 2 26.423582841765107 3.7823300103798672 2 34.45659458958778 12.749263709437249 2 30.35693466490725 0.7 2 45.046720112910172 0.7 2 43.779162799912044 4.4443304816226954 2 56.609239514795654 4.7553238465067311 2 59.122075632451811 2.7626861811034011 2 63.805556906514326 10.459240722522031 2 69.598228517581617 3.5511565396629532 2 81.305198213178286 5.0362181148958314 2 91.878840714729932 3.660526249285788 2 96.30663203280325 2.0282737313263066 2 12.639929915181529 6.5893357852571821 2 32.317268564825547 7.2124397630285841 2 43.806456399266004 6.2234508660667487 2 74.978858260248572 6.5512887400074389 2 78.098378362718051 8.3939313494014094 2 76.118215318915233 3.5111032818661663 2 25.637301114932114 2.757800369885917 2 64.13311967414684 9.0265419775831912 2 66.578654150800247 9.07936062666076 2 78.668838777360122 5.1912068232849 2 14.151628378752205 5.4490030949568729 2 28.016263245660546 6.6295034001286366 2 61.759292269512727 4.3678413136856884 2 66.019522826185494 5.4562984523840345 2 12.11543888683644 6.0759425588181371 2 14.189839437334829 7.53027635242701 2 32.157232033766405 4.9916486454005202 2 61.16567013395769 5.5922424019968462 2 65.550860372295148 6.4386823686664583 2 67.351657394822382 3.6183141015709515 2 74.888362955401561 5.848822435346487 2 76.451220718658632 11.029373927259089 2 2.6860120881377707 7.8267929355069992 2 6.4274986551966462 6.5006476560007638 2 8.7505874053741959 2.8953867548460548 2 11.358266994795967 0.7 2 13.358306775540683 6.5535967193869649 2 15.979310985037751 7.2069630109832543 2 20.881197655374066 6.1668531399293025 2 24.274658383284951 7.7817863065954604 2 30.004993044098327 8.8891563407143686 2 33.505224043407011 7.7334211164378708 2 35.285933797294753 7.7569801013619157 2 38.205181962630327 10.448651277589599 2 41.350684379922136 6.4108563835090351 2 44.705148780618103 7.7963867421461339 2 49.711846460575735 8.078976249977849 2 61.625457016851691 13.52314633361126 2 59.802166599932058 1.8790946140776814 2 64.798171580339641 0.7 2 69.794574658837348 8.7621228548081618 2 73.344909819247434 8.5222686736782691 2 73.13724481672277 13.366496365752237 2 75.593795375325115 10.202734850434533 2 78.052845016129254 4.5578150122187546 2 81.365745808141185 7.2634640357456091 2 86.111954202402814 5.5963982496773781 2 96.085864433114281 8.2545327704910729 2 1.3561944670296073 0.7 2 3.9090900441091945 1.3325169163252299 2 6.8962473262214683 6.9816380603062473 2 14.268750400810385 4.2179920784080203 2 15.082645541270079 13.313691279182457 2 20.42171115749348 2.8198195017934284 2 25.833809244627993 3.4512564872570541 2 27.762458590847988 15.68743847854212 2 30.259270888072631 1.707303376549886 2 35.202398492339256 0.7 2 38.132868054591832 5.4339212474383443 2 40.199904297703675 1.3999658389747025 2 44.849032295621285 1.3075239704162105 2 46.604049517462805 3.2318056833698829 2 57.06717365014849 0.7 2 60.140395629268653 5.2484481167052701 2 67.699272386290488 7.5018358163334398 2 67.30886051460557 10.835896010615285 2 65.479532681037171 15.841330331913348 2 69.340882046628636 1.7526062518922008 2 73.251690224424848 2.6696400644653049 2 79.242330909917484 15.419627891916655 2 75.196748153878175 2.7934812884924285 2 77.983188076793425 5.8602357099446269 2 84.521312679107041 0.7 2 83.454844149271779 16.145560599567446 2 97.4735083478962 4.9599250699822051 2 7.7061930681613973 3.3357094761749542 2 13.371638989808469 2