<?xml version="1.0" ?>
<VTKFile byte_order="LittleEndian" type="UnstructuredGrid" version="0.1">
<UnstructuredGrid>
<Piece NumberOfCells="0" NumberOfPoints="38">
<Points>
<DataArray NumberOfComponents="3" format="ascii" type="Float32">3.5283488535493062 3.5884094103861495 2 7.913369215901124 1.2 2 18.452040349612201 4.3675262375271897 2 21.773010199912282 1.2 2 24.807152495143225 1.2 2 35.956056612161795 3.5841638733854135 2 40.18103361493074 4.8102707075748699 2 45.593340298525625 1.2 2 49.893456305085863 1.2 2 52.02678118689844 3.576864710522174 2 54.375363877495218 3.8110493660900007 2 56.090854920195433 2.2573083016289899 2 59.968042963733758 3.572639345068739 2 81.977151299157455 1.2 2 86.831766200781743 3.4841479590164024 2 89.134144951564693 3.4361318940587111 2 91.45070605815279 3.3848440253425034 2 94.909739994487566 5.4939917864321028 2 98.8 1.2 2 3.4323263254070921 1.2 2 7.395612756263823 5.3706076608159297 2 17.100051302931455 1.2 2 22.165966980871186 5.0599890904371154 2 23.31811434612106 2.9977928708271184 2 34.785170945701601 1.2 2 39.152175892923438 1.2 2 46.783552698218912 3.5800511827564576 2 50.476394724239427 5.3866480536093908 2 52.039387491549448 1.2 2 54.203198324630193 1.2 2 55.987533373890606 5.5697780199909772 2 60.168138603329169 1.2 2 82.31939963259542 3.5527857698414298 2 86.175038933620698 1.2 2 88.271894936490625 1.2 2 90.373440212376892 1.2 2 94.595499371425817 1.2 2 98.799999999999997 3.59363034432433 2 </DataArray>
</Points>
<Cells>
<DataArray Name="connectivity" format="ascii" type="Int32">0</DataArray>
<DataArray Name="offsets" format="ascii" type="Int32">0</DataArray>
<DataArray Name="types" format="ascii" type="UInt8">1</DataArray>
</Cells>
<PointData>
<DataArray Name="Points" NumberOfComponents="3" format="ascii" type="Float32">3.5283488535493062 3.5884094103861495 2 7.913369215901124 1.2 2 18.452040349612201 4.3675262375271897 2 21.773010199912282 1.2 2 24.807152495143225 1.2 2 35.956056612161795 3.5841638733854135 2 40.18103361493074 4.8102707075748699 2 45.593340298525625 1.2 2 49.893456305085863 1.2 2 52.02678118689844 3.576864710522174 2 54.375363877495218 3.8110493660900007 2 56.090854920195433 2.2573083016289899 2 59.968042963733758 3.572639345068739 2 81.977151299157455 1.2 2 86.831766200781743 3.4841479590164024 2 89.134144951564693 3.4361318940587111 2 91.45070605815279 3.3848440253425034 2 94.909739994487566 5.4939917864321028 2 98.8 1.2 2 3.4323263254070921 1.2 2 7.395612756263823 5.3706076608159297 2 17.100051302931455 1.2 2 22.165966980871186 5.0599890904371154 2 23.31811434612106 2.9977928708271184 2 34.785170945701601 1.2 2 39.152175892923438 1.2 2 46.783552698218912 3.5800511827564576 2 50.476394724239427 5.3866480536093908 2 52.039387491549448 1.2 2 54.203198324630193 1.2 2 55.987533373890606 5.5697780199909772 2 60.168138603329169 1.2 2 82.31939963259542 3.5527857698414298 2 86.175038933620698 1.2 2 88.271894936490625 1.2 2 90.373440212376892 1.2 2 94.595499371425817 1.2 2 98.799999999999997 3.59363034432433 2 </DataArray>
<DataArray Name="forces" NumberOfComponents="3" format="ascii" type="Float32">0.02015055304957904 0.006474883563865194 0.0 0.010301246663148821 -0.07855353100492446 0.0 0.025581002108334781 0.02642954409453506 0.0 0.027975408389908526 -0.024669143660799475 0.0 -0.035988243291308702 -0.059650548862746365 0.0 0.00058157492031079422 0.011893206818550489 0.0 -4.3958449695860602e-05 0.042862853842056098 0.0 -0.00076970058829317622 0.0 0.0 0.007860726932785167 -0.044301587049929328 0.0 -0.028383449140702264 0.0066759283710642811 0.0 -0.032756823056006065 0.050706509866393232 0.0 -0.0013429729080150221 0.086685867268905176 0.0 0.0072917160605568384 0.0061727935734513292 0.0 -0.022641225939763171 -0.02228973061380228 0.0 0.00782871016113083 0.0046950710780278258 0.0 0.015750550945000656 0.0032663765760273483 0.0 0.023114897800519202 -0.0022369300842150215 0.0 0.015738685079011411 0.029171266864276558 0.0 0.29590106828578078 -0.0063412005854215359 0.0 0.0026229138759795434 -0.0099014387270706678 0.0 0.008761146945346427 0.048176167178120732 0.0 0.016696045179958818 -0.014006826486280256 0.0 -0.01301198695271482 0.04073431224278317 0.0 -0.003991380859912682 0.041422762312433407 0.0 -0.017478425910169904 0.0 0.0 -0.013363330519325811 -0.048891333511300143 0.0 0.0094397442721091962 0.008689203712496681 0.0 0.0042504840300846176 0.035118164746323899 0.0 0.017103794690938923 -0.023218330535237173 0.0 0.028562658291165333 -0.11481040923373338 0.0 -0.014172585014459671 0.034242783659721727 0.0 -0.015574066444798695 -0.018121847750803388 0.0 0.0066949188749941685 0.0023968185884773383 0.0 -0.0016589152393552409 -0.022727192997147826 0.0 0.0044979555666921911 -0.0035051786327535616 0.0 0.0072410972185537048 0.0 0.0 0.0047936624306054165 -0.048218214947538515 0.0 0.0 0.0063412005854215359 0.0 </DataArray>
<DataArray Name="radii" format="ascii" type="Float32">1.2 1.2 1.2 1.2 1.2 1.2 1.2 1.2 1.2 1.2 1.2 1.2 1.2 1.2 1.2 1.2 1.2 1.2 1.2 1.2 1.2 1.2 1.2 1.2 1.2 1.2 1.2 1.2 1.2 1.2 1.2 1.2 1.2 1.2 1.2 1.2 1.2 1.2 </DataArray>
</PointData>
<CellData/>
</Piece>
</UnstructuredGrid>
</VTKFile>
