<?xml version="1.0" ?>
<VTKFile byte_order="LittleEndian" type="UnstructuredGrid" version="0.1">
<UnstructuredGrid>
<Piece NumberOfCells="0" NumberOfPoints="240">
<Points>
<DataArray NumberOfComponents="3" format="ascii" type="Float32">1.2 7.2663070894483006 2 5.8992094819813365 6.4230527236376593 2 8.8439888877083153 1.12 2 12.368095637557674 1.2 2 12.450849488955367 6.5481559709660129 2 16.723219232254909 7.5790815293217211 2 19.678191351663354 6.5821100591587154 2 25.214996205972824 7.5203215235077749 2 29.520125485954118 7.750958902012929 2 30.223928328091855 13.75007397871639 2 33.161610456699997 8.0144173926086513 2 33.938179744873366 6.4256778491858721 2 40.032491983689994 9.2619357099933293 2 42.090853517343511 6.9701869275896788 2 45.07932688583287 8.2354943147604569 2 48.936278410998206 7.5949613982626127 2 57.972187689253602 8.8232881846340092 2 60.978817626393734 12.88333724245653 2 61.59255962923568 1.12 2 65.447914859673844 1.12 2 69.179190178535563 14.53758817761091 2 70.288659831093923 6.8510631456763038 2 73.97641382507075 6.8888893770384474 2 71.896587996212375 13.182791533160346 2 76.119581157055393 8.5782816005975384 2 77.346987932621886 2.2080701411270116 2 81.04600491498698 5.7547836814405713 2 84.591683233135782 4.648874339243001 2 90.585803867444653 5.7156504264048644 2 97.208050619835504 7.7910500226316568 2 2.2271009388310605 1.2 2 5.5148227375749075 1.2 2 8.3691597364156483 6.3368119887536904 2 11.090743638149931 13.798897234904606 2 15.187568855018869 4.5839566422339635 2 14.752451602954622 11.95617000394207 2 19.553736108013066 2.7220571381750926 2 25.836973340248797 3.8151681704615017 2 26.257472542544622 12.97692509618955 2 32.473468436213722 13.939688170473579 2 29.421971604410356 1.12 2 34.998656623271067 1.12 2 37.252453058758427 4.7855448459088148 2 41.060989302830862 2.8889549504516512 2 44.937659554946862 1.798746803646474 2 47.413140286934258 4.1627917880581498 2 56.995570675713729 1.2 2 60.747853530028578 5.1983161212495315 2 66.038541372647742 6.7351389973453433 2 67.153007853321526 9.3502457593246131 2 64.636532157033557 13.41198978283701 2 69.328862005678317 2.1153945393355791 2 72.46720603642737 1.12 2 78.063323828639042 12.951654798851463 2 76.371370226806846 1.12 2 79.363933981877821 5.1671384051588687 2 82.534165897202413 1.12 2 83.036744734693073 12.594892002798112 2 93.669147642658444 7.8020884219853022 2 97.124166978147187 4.485373431806515 2 1.2 12.390898497574304 2 5.261139825188665 11.565482370015914 2 7.9147413522043593 2.4612916432670948 2 12.898460604685329 3.2258000282103114 2 11.555884674603936 9.2363159537337758 2 18.20182600908883 6.6211572659628333 2 21.473565744190601 9.9549509233690952 2 24.503388875407897 5.2837709083333353 2 27.949623526623288 7.142143715284984 2 27.58778290252636 11.558660970968994 2 29.456396226534451 5.0131421390831292 2 34.448040853313827 9.4943703431241069 2 38.644574603082923 7.7157321185385523 2 41.552418818583774 8.6078471414266282 2 45.066263661487845 13.423966956042261 2 49.374700712797207 5.8692673275426008 2 59.088976012761208 12.641004197909117 2 61.46100290541569 9.5904441498704625 2 64.302409846886334 5.547114820465854 2 66.792325691305535 3.7100600168842441 2 68.130131533917393 11.794887657478489 2 70.032083550066275 10.162699573746458 2 72.985065523082383 5.3330099985455934 2 76.056418793097833 13.604655214498214 2 73.621485439727678 10.339809595581441 2 80.070284929614019 2.1712180178221465 2 80.977739716421155 11.965946681958977 2 85.112554360114316 1.2 2 92.151471358786921 1.2 2 96.936416114036021 9.8234486634308222 2 1.2 5.5764626422793784 2 4.9875612149599791 5.2868177611821805 2 9.7091432141192318 6.5488986159852915 2 10.237568555308759 10.582144218969534 2 16.111698698720168 1.2 2 13.892172295040055 8.8455334500553811 2 20.595302265759337 3.7140760307714982 2 25.544129174228729 1.2 2 24.746076405010722 11.108847082132995 2 36.592668650667783 12.740198462873057 2 30.88210309747047 1.12 2 33.374503229637781 3.0974738413918694 2 37.630513218817349 2.7004005697854119 2 42.433631685386146 1.9221668960030156 2 44.880873255216237 4.4594821702389709 2 48.152395185947398 2.5738134346539105 2 54.919935595038417 4.2008989036691275 2 59.598435574993651 1.12 2 62.27066371988073 6.2192505113173979 2 67.733865474503588 5.4155691950959719 2 66.186793623950535 11.888513016130307 2 69.089396498381348 4.3832591171752169 2 70.528766950395877 1.12 2 78.115418207563906 15.089886210159703 2 75.193747499927781 5.2044673932127292 2 78.651210117351042 8.9001020345374133 2 81.250615595988208 4.2094043535927081 2 86.107723534081586 10.728419754935418 2 93.622712423784535 4.6267816682419696 2 95.780133045070912 1.2 2 2.5872808828639826 10.195296924716571 2 4.6781219484939438 7.7336209444369084 2 9.7778621812921802 2.3451522414838504 2 11.042341658776431 1.12 2 16.54181112156127 9.15558118909399 2 18.512471907981681 8.0879347692661554 2 26.181421323586573 5.1489813567961207 2 29.520183842574006 9.6836764320142787 2 31.08628176776983 10.593372372263099 2 32.249638395509933 6.4522673112520552 2 40.12874616900578 11.243545041672732 2 43.308557773420844 8.6438056363999891 2 49.00446459437245 9.8145554768799528 2 57.932399133020169 10.878013624369684 2 60.506427045933549 10.923330591186359 2 62.696746758347395 1.12 2 64.566041319744954 1.12 2 71.251626264765662 15.182366374613089 2 69.70123019627556 8.526787158562831 2 72.415776400414515 11.277855693395068 2 80.711648687640448 7.3579106289804832 2 84.508725624731895 6.439412393090155 2 91.74206491525959 4.7298153406602745 2 96.641268859261018 6.1896980043497623 2 1.12 1.6628561647350424 2 4.425520724482733 1.7030628777038337 2 8.2552228037265039 8.050423271511379 2 13.152962275748365 13.078853142667228 2 15.227711210978304 3.3513698509836378 2 16.669774005229954 12.279848502070617 2 19.316573216723995 1.2 2 25.037779282664541 14.969564401158914 2 34.626247951332637 13.279797697993796 2 28.337543905166008 1.12 2 32.974805018830921 1.9643449907206219 2 36.340612407846415 3.3905367326702716 2 40.553913735636833 4.8116079529066251 2 43.109496178257835 3.1980391422866079 2 47.896136690846802 5.8217643421027594 2 56.664100430048414 2.8622577216562388 2 60.71685837548074 6.8048223476832073 2 62.868401285334812 12.7736954860379 2 68.318675097160266 1.12 2 71.563955380398653 1.12 2 77.378379503884702 11.193778822840772 2 75.105938791882451 2.2148028625231335 2 82.944712217546055 2.7895477347507502 2 85.222814510318642 12.84038477613114 2 95.22349907496006 8.9026695602174559 2 97.176757081057147 2.908879134049049 2 1.12 10.272735586757639 2 5.7362631026128037 9.3484060242755849 2 9.2956785857080373 4.609655905392267 2 11.961987635349416 11.395515358059999 2 17.431410637607158 5.3986624792239901 2 20.217395418085857 11.383088658076813 2 22.763876544967946 4.2715719243649382 2 29.395234759657466 11.755147013265345 2 30.72901224909365 4.0045472539411042 2 32.969657942784458 10.683540592809003 2 37.355436402037434 6.4461584852211953 2 42.400531478105023 11.567650300257805 2 45.020203838978915 9.9352621908411987 2 49.647262773836054 4.2166850676391556 2 58.549242339072237 14.701450315657322 2 63.508767062902365 10.808213926598011 2 67.160295063940211 14.627269105334955 2 69.979684576647529 12.726817249646592 2 73.457938167812046 4.0496210327628459 2 73.85253138210777 14.293268074221288 2 74.628321277414301 12.069190252038322 2 79.661742154790062 1.12 2 82.330392582500082 10.370690453550557 2 85.938937761248852 2.8396233547148038 2 93.950977131101581 2.5446406077986459 2 95.228367848103602 11.07065673420939 2 1.12 4.0715951392175826 2 3.9748849178127563 3.6632123957174634 2 8.7514882462743291 12.084194764299829 2 14.397868565127711 1.8007522481690081 2 21.547953485148945 5.5620228278061763 2 27.381658260993444 2.5733323734730673 2 26.034878938463308 9.4175546085460287 2 35.139046323936192 11.230152361688395 2 31.957907281703022 1.12 2 38.454115376048392 1.2 2 43.835070623183931 1.12 2 43.198228607960012 5.3996026713403982 2 49.190615654435568 1.2 2 56.304809495560896 4.7881216168129477 2 60.420183190887862 2.3736486500310181 2 65.397761245410564 9.303001752806022 2 70.842629746289376 2.6782845277848839 2 80.081775551111932 13.845195331835301 2 79.993062983484322 4.1208182996166416 2 87.417916779917093 12.661729164497183 2 91.454669032870143 2.6876835927570006 2 97.27468125165872 1.2 2 11.956018501083085 5.1433440295214909 2 31.690591059159956 8.0468068006703781 2 43.449140935468705 7.0156115031292199 2 75.282519353749052 7.2205994842118857 2 76.853420785394775 7.4269736688042016 2 77.168662117283759 3.5174687937904041 2 24.753440854827712 3.1383544029365642 2 64.903624819696986 6.7167071852812148 2 67.317048689027359 8.0124729188288448 2 78.327699785660016 5.6855777135085148 2 13.017088455850612 4.5034054251952211 2 26.64303245576242 6.6781490548304419 2 63.534564503634826 4.2550678239034134 2 65.721298467184923 3.9911593207061533 2 10.95454088408426 6.2308749259080143 2 15.027384467115992 7.920466139754196 2 33.320835563503778 4.2129507138481426 2 62.852837041528389 5.2371137937705798 2 66.524053535624219 5.3432508348510614 2 67.956305453474954 4.1110427701094148 2 74.595661328829777 4.284537491501772 2 77.39069537293598 9.3056478354792844 2 </DataArray>
</Points>
<Cells>
<DataArray Name="connectivity" format="ascii" type="Int32">0</DataArray>
<DataArray Name="offsets" format="ascii" type="Int32">0</DataArray>
<DataArray Name="types" format="ascii" type="UInt8">1</DataArray>
</Cells>
<PointData>
<DataArray Name="Points" NumberOfComponents="3" format="ascii" type="Float32">1.2 7.2663070894483006 2 5.8992094819813365 6.4230527236376593 2 8.8439888877083153 1.12 2 12.368095637557674 1.2 2 12.450849488955367 6.5481559709660129 2 16.723219232254909 7.5790815293217211 2 19.678191351663354 6.5821100591587154 2 25.214996205972824 7.5203215235077749 2 29.520125485954118 7.750958902012929 2 30.223928328091855 13.75007397871639 2 33.161610456699997 8.0144173926086513 2 33.938179744873366 6.4256778491858721 2 40.032491983689994 9.2619357099933293 2 42.090853517343511 6.9701869275896788 2 45.07932688583287 8.2354943147604569 2 48.936278410998206 7.5949613982626127 2 57.972187689253602 8.8232881846340092 2 60.978817626393734 12.88333724245653 2 61.59255962923568 1.12 2 65.447914859673844 1.12 2 69.179190178535563 14.53758817761091 2 70.288659831093923 6.8510631456763038 2 73.97641382507075 6.8888893770384474 2 71.896587996212375 13.182791533160346 2 76.119581157055393 8.5782816005975384 2 77.346987932621886 2.2080701411270116 2 81.04600491498698 5.7547836814405713 2 84.591683233135782 4.648874339243001 2 90.585803867444653 5.7156504264048644 2 97.208050619835504 7.7910500226316568 2 2.2271009388310605 1.2 2 5.5148227375749075 1.2 2 8.3691597364156483 6.3368119887536904 2 11.090743638149931 13.798897234904606 2 15.187568855018869 4.5839566422339635 2 14.752451602954622 11.95617000394207 2 19.553736108013066 2.7220571381750926 2 25.836973340248797 3.8151681704615017 2 26.257472542544622 12.97692509618955 2 32.473468436213722 13.939688170473579 2 29.421971604410356 1.12 2 34.998656623271067 1.12 2 37.252453058758427 4.7855448459088148 2 41.060989302830862 2.8889549504516512 2 44.937659554946862 1.798746803646474 2 47.413140286934258 4.1627917880581498 2 56.995570675713729 1.2 2 60.747853530028578 5.1983161212495315 2 66.038541372647742 6.7351389973453433 2 67.153007853321526 9.3502457593246131 2 64.636532157033557 13.41198978283701 2 69.328862005678317 2.1153945393355791 2 72.46720603642737 1.12 2 78.063323828639042 12.951654798851463 2 76.371370226806846 1.12 2 79.363933981877821 5.1671384051588687 2 82.534165897202413 1.12 2 83.036744734693073 12.594892002798112 2 93.669147642658444 7.8020884219853022 2 97.124166978147187 4.485373431806515 2 1.2 12.390898497574304 2 5.261139825188665 11.565482370015914 2 7.9147413522043593 2.4612916432670948 2 12.898460604685329 3.2258000282103114 2 11.555884674603936 9.2363159537337758 2 18.20182600908883 6.6211572659628333 2 21.473565744190601 9.9549509233690952 2 24.503388875407897 5.2837709083333353 2 27.949623526623288 7.142143715284984 2 27.58778290252636 11.558660970968994 2 29.456396226534451 5.0131421390831292 2 34.448040853313827 9.4943703431241069 2 38.644574603082923 7.7157321185385523 2 41.552418818583774 8.6078471414266282 2 45.066263661487845 13.423966956042261 2 49.374700712797207 5.8692673275426008 2 59.088976012761208 12.641004197909117 2 61.46100290541569 9.5904441498704625 2 64.302409846886334 5.547114820465854 2 66.792325691305535 3.7100600168842441 2 68.130131533917393 11.794887657478489 2 70.032083550066275 10.162699573746458 2 72.985065523082383 5.3330099985455934 2 76.056418793097833 13.604655214498214 2 73.621485439727678 10.339809595581441 2 80.070284929614019 2.1712180178221465 2 80.977739716421155 11.965946681958977 2 85.112554360114316 1.2 2 92.151471358786921 1.2 2 96.936416114036021 9.8234486634308222 2 1.2 5.5764626422793784 2 4.9875612149599791 5.2868177611821805 2 9.7091432141192318 6.5488986159852915 2 10.237568555308759 10.582144218969534 2 16.111698698720168 1.2 2 13.892172295040055 8.8455334500553811 2 20.595302265759337 3.7140760307714982 2 25.544129174228729 1.2 2 24.746076405010722 11.108847082132995 2 36.592668650667783 12.740198462873057 2 30.88210309747047 1.12 2 33.374503229637781 3.0974738413918694 2 37.630513218817349 2.7004005697854119 2 42.433631685386146 1.9221668960030156 2 44.880873255216237 4.4594821702389709 2 48.152395185947398 2.5738134346539105 2 54.919935595038417 4.2008989036691275 2 59.598435574993651 1.12 2 62.27066371988073 6.2192505113173979 2 67.733865474503588 5.4155691950959719 2 66.186793623950535 11.888513016130307 2 69.089396498381348 4.3832591171752169 2 70.528766950395877 1.12 2 78.115418207563906 15.089886210159703 2 75.193747499927781 5.2044673932127292 2 78.651210117351042 8.9001020345374133 2 81.250615595988208 4.2094043535927081 2 86.107723534081586 10.728419754935418 2 93.622712423784535 4.6267816682419696 2 95.780133045070912 1.2 2 2.5872808828639826 10.195296924716571 2 4.6781219484939438 7.7336209444369084 2 9.7778621812921802 2.3451522414838504 2 11.042341658776431 1.12 2 16.54181112156127 9.15558118909399 2 18.512471907981681 8.0879347692661554 2 26.181421323586573 5.1489813567961207 2 29.520183842574006 9.6836764320142787 2 31.08628176776983 10.593372372263099 2 32.249638395509933 6.4522673112520552 2 40.12874616900578 11.243545041672732 2 43.308557773420844 8.6438056363999891 2 49.00446459437245 9.8145554768799528 2 57.932399133020169 10.878013624369684 2 60.506427045933549 10.923330591186359 2 62.696746758347395 1.12 2 64.566041319744954 1.12 2 71.251626264765662 15.182366374613089 2 69.70123019627556 8.526787158562831 2 72.415776400414515 11.277855693395068 2 80.711648687640448 7.3579106289804832 2 84.508725624731895 6.439412393090155 2 91.74206491525959 4.7298153406602745 2 96.641268859261018 6.1896980043497623 2 1.12 1.6628561647350424 2 4.425520724482733 1.7030628777038337 2 8.2552228037265039 8.050423271511379 2 13.152962275748365 13.078853142667228 2 15.227711210978304 3.3513698509836378 2 16.669774005229954 12.279848502070617 2 19.316573216723995 1.2 2 25.037779282664541 14.969564401158914 2 34.626247951332637 13.279797697993796 2 28.337543905166008 1.12 2 32.974805018830921 1.9643449907206219 2 36.340612407846415 3.3905367326702716 2 40.553913735636833 4.8116079529066251 2 43.109496178257835 3.1980391422866079 2 47.896136690846802 5.8217643421027594 2 56.664100430048414 2.8622577216562388 2 60.71685837548074 6.8048223476832073 2 62.868401285334812 12.7736954860379 2 68.318675097160266 1.12 2 71.563955380398653 1.12 2 77.378379503884702 11.193778822840772 2 75.105938791882451 2.2148028625231335 2 82.944712217546055 2.7895477347507502 2 85.222814510318642 12.84038477613114 2 95.22349907496006 8.9026695602174559 2 97.176757081057147 2.908879134049049 2 1.12 10.272735586757639 2 5.7362631026128037 9.3484060242755849 2 9.2956785857080373 4.609655905392267 2 11.961987635349416 11.395515358059999 2 17.431410637607158 5.3986624792239901 2 20.217395418085857 11.383088658076813 2 22.763876544967946 4.2715719243649382 2 29.395234759657466 11.755147013265345 2 30.72901224909365 4.0045472539411042 2 32.969657942784458 10.683540592809003 2 37.355436402037434 6.4461584852211953 2 42.400531478105023 11.567650300257805 2 45.020203838978915 9.9352621908411987 2 49.647262773836054 4.2166850676391556 2 58.549242339072237 14.701450315657322 2 63.508767062902365 10.808213926598011 2 67.160295063940211 14.627269105334955 2 69.979684576647529 12.726817249646592 2 73.457938167812046 4.0496210327628459 2 73.85253138210777 14.293268074221288 2 74.628321277414301 12.069190252038322 2 79.661742154790062 1.12 2 82.330392582500082 10.370690453550557 2 85.938937761248852 2.8396233547148038 2 93.950977131101581 2.5446406077986459 2 95.228367848103602 11.07065673420939 2 1.12 4.0715951392175826 2 3.9748849178127563 3.6632123957174634 2 8.7514882462743291 12.084194764299829 2 14.397868565127711 1.8007522481690081 2 21.547953485148945 5.5620228278061763 2 27.381658260993444 2.5733323734730673 2 26.034878938463308 9.4175546085460287 2 35.139046323936192 11.230152361688395 2 31.957907281703022 1.12 2 38.454115376048392 1.2 2 43.835070623183931 1.12 2 43.198228607960012 5.3996026713403982 2 49.190615654435568 1.2 2 56.304809495560896 4.7881216168129477 2 60.420183190887862 2.3736486500310181 2 65.397761245410564 9.303001752806022 2 70.842629746289376 2.6782845277848839 2 80.081775551111932 13.845195331835301 2 79.993062983484322 4.1208182996166416 2 87.417916779917093 12.661729164497183 2 91.454669032870143 2.6876835927570006 2 97.27468125165872 1.2 2 11.956018501083085 5.1433440295214909 2 31.690591059159956 8.0468068006703781 2 43.449140935468705 7.0156115031292199 2 75.282519353749052 7.2205994842118857 2 76.853420785394775 7.4269736688042016 2 77.168662117283759 3.5174687937904041 2 24.753440854827712 3.1383544029365642 2 64.903624819696986 6.7167071852812148 2 67.317048689027359 8.0124729188288448 2 78.327699785660016 5.6855777135085148 2 13.017088455850612 4.5034054251952211 2 26.64303245576242 6.6781490548304419 2 63.534564503634826 4.2550678239034134 2 65.721298467184923 3.9911593207061533 2 10.95454088408426 6.2308749259080143 2 15.027384467115992 7.920466139754196 2 33.320835563503778 4.2129507138481426 2 62.852837041528389 5.2371137937705798 2 66.524053535624219 5.3432508348510614 2 67.956305453474954 4.1110427701094148 2 74.595661328829777 4.284537491501772 2 77.39069537293598 9.3056478354792844 2 </DataArray>
<DataArray Name="forces" NumberOfComponents="3" format="ascii" type="Float32">-0.64562300641583648 0.13544565558492644 0.0 -0.038885779128695452 0.055466137148576698 0.0 -0.038584028250658098 -0.57244592791036153 0.0 -0.0077452846346018761 -0.93357927456062317 0.0 0.021384153275726125 0.10628710356241443 0.0 0.021627574286796125 0.13613158714879581 0.0 -0.038445817719953257 0.0086107216252070962 0.0 -0.0075356840902995326 0.14710962319667506 0.0 0.029751933885904969 0.1177577857442681 0.0 -0.083839144801388099 0.18884277021602794 0.0 0.087427285589945017 0.091159999788294921 0.0 0.00060992563578660119 0.057522049376773743 0.0 0.066512857065152836 0.14518376164953692 0.0 0.04871689965952497 0.09137202120971849 0.0 0.050916295997849664 0.11345467447258004 0.0 -0.033641523018844516 0.19066176038119315 0.0 -0.023440460612082936 0.19145414608210706 0.0 -0.042861211529592935 0.28116753948115586 0.0 -0.036663248950601107 -0.60373174535224372 0.0 -0.042129572359794143 -0.39243042099190012 0.0 0.033344435896098562 0.26467472656641272 0.0 -0.0073839615933605773 0.096294491242696234 0.0 0.042884328288935902 0.091029834247890018 0.0 -0.059160768796247959 0.18600135754965638 0.0 -0.0084228419293811418 0.12936061237545921 0.0 -0.013820761091494771 0.0075457322304441771 0.0 -0.02106179405996117 0.072224101099285509 0.0 -0.037516156814220644 0.11741653261742298 0.0 0.048249541028960174 0.13400190495391881 0.0 -0.024287111755808111 0.25478308879576 0.0 0.037275058512656389 -1.0714428459268686 0.0 -0.016395651975080645 -1.0246165760532602 0.0 -0.011684490491971955 0.067518544523687607 0.0 -0.081972827678954557 0.20903838884828579 0.0 -0.045389973066205735 0.047647973241180391 0.0 -0.13848561954712646 0.059889921978875285 0.0 -0.025518537982493927 0.014050570271391824 0.0 0.0035587382010137392 0.061075506801695295 0.0 0.030681746834817301 0.21969497294914275 0.0 -0.078924166161849815 0.20548380127822213 0.0 0.062054411857053349 -1.0261398842420952 0.0 0.0075952089896934583 -0.59024755060625611 0.0 -0.02278495437900746 0.070790117615039561 0.0 -0.0024888371849632121 0.070254174777379663 0.0 -0.010036688001718141 0.0083611254231654164 0.0 -0.012161596175718218 0.034312318449768793 0.0 -0.080931181816082887 -0.74048697000643726 0.0 0.024906743794574734 0.099358089428991131 0.0 0.03490152052402351 0.066766090632030206 0.0 -0.042711095881993427 0.069690275403692131 0.0 0.022552702550318854 0.20885108430374053 0.0 -0.035815164995674012 0.1106779125594311 0.0 0.034299025538665671 -0.64187137279618267 0.0 0.069790689262906519 0.20194122379068524 0.0 0.018241390087413573 -0.65019345274667384 0.0 0.023262716156331353 0.10004325933435138 0.0 0.02217478821943597 -0.71545444237933264 0.0 -0.043816458556226345 0.26525745093734737 0.0 0.060378492533525313 0.20835801719057784 0.0 0.01485320815520319 0.062599957685321436 0.0 -0.23574962727028775 0.22518983833377074 0.0 -0.047649057670637845 0.25082456400052794 0.0 0.026883569036196042 0.042292075933603235 0.0 -0.026469149166686079 0.030928556943882708 0.0 -0.047510328059780171 0.14135379496002298 0.0 -0.069390251249491913 0.1312083722948009 0.0 0.012618212479962587 0.22769525977893534 0.0 0.026754836177892538 0.061945599676606414 0.0 0.009049059950131666 0.097164963415448669 0.0 0.027702696897928092 0.20990165038763456 0.0 -0.010894535751302503 0.066215470297019463 0.0 -0.00071425100736166591 0.16534852959131954 0.0 0.015693178416614606 0.22868639139722169 0.0 0.058658653794792764 0.066858837885428901 0.0 0.064339281618819549 0.36860654729524134 0.0 0.035372089100783502 0.15180290859540049 0.0 -0.04397224566995659 0.16083687591634793 0.0 0.013778171661533833 0.18915332301661383 0.0 0.0041955147118001301 0.070283099659393236 0.0 0.0042133181646328843 0.076577155351540888 0.0 -0.045256367164806244 0.16445561398612568 0.0 -0.04164874915516148 0.049109892611487238 0.0 0.021720785785748375 0.086765313623459267 0.0 0.040823210770777052 0.20275747493714857 0.0 0.035621339332648827 0.14571065717429682 0.0 0.017474392751750334 0.078543370075375263 0.0 -0.066543208262157483 0.1963903610327643 0.0 0.041541681614848003 -0.90131957299093091 0.0 0.044841625097699067 -0.88061355597409796 0.0 0.026053803066910818 0.26154824885257305 0.0 -0.76827677626738655 0.095418219423046235 0.0 -0.07889314977694617 0.0049029306862998778 0.0 -0.018504411294295267 0.047984855436853019 0.0 0.015353674641358925 0.15859266211279544 0.0 0.022319993130853782 -1.1516400313541124 0.0 -0.027623434283132797 0.14239798775838078 0.0 0.0044400276051385079 0.0095017894523095059 0.0 -0.025792386556379665 -0.9619056803704229 0.0 0.048649614698195953 0.19499643142928338 0.0 -0.0088872930032485586 0.28913956748385766 0.0 -0.016456095977861462 -0.94675213686884874 0.0 -0.0044962234812221114 0.065605692522193254 0.0 -0.029171970725149765 0.063239567597296736 0.0 0.023194897954041185 0.064519224390921615 0.0 -0.003909558427064197 0.094573539374822435 0.0 0.0048812551498206291 0.076009479432076477 0.0 -0.026763890725037709 0.097003727467736445 0.0 -0.066835975250180812 -0.85184173717280343 0.0 -0.052809177470189317 0.092294137754351691 0.0 -0.02280958912454617 0.10202099612174786 0.0 -0.037395763927051462 0.13931855513637134 0.0 -0.026721221132668171 0.075392246765056264 0.0 -0.0039478357652880103 -0.49698258529178241 0.0 -0.058845915942333279 0.22409654091201203 0.0 -0.052764899963347212 0.17452346428402543 0.0 0.027438270508452659 0.060247889525910397 0.0 0.034284750788616036 0.067850362600541614 0.0 0.026615925225198941 0.24166870448695069 0.0 0.013274589971210102 0.012607447371340563 0.0 0.022197795793921227 -0.86938094592935289 0.0 0.03490130297535507 0.25940953845707365 0.0 -0.01529345215113212 0.16685720411549701 0.0 -0.022392964735414966 0.014828424871692742 0.0 -0.027258867792444817 -0.75692002066736497 0.0 0.0093731857675005692 0.15562133497187411 0.0 0.072784943280093328 0.14836532800194036 0.0 0.021026489703412754 0.072678804969300681 0.0 -0.022111448936485478 0.1342681538509618 0.0 -0.011062732621141973 0.15149454364960876 0.0 -0.017814555777184271 0.12589834411033762 0.0 0.056125536727577918 0.19267228100875392 0.0 0.045463865586442775 0.16608507802926459 0.0 -0.010802833914619392 0.23175339013061222 0.0 -0.037470161343783531 0.1992548473008148 0.0 0.018305295525531395 0.2526005205454947 0.0 -0.098004783829721442 -0.79477329315924683 0.0 -0.051466677989769033 -0.46490324157860785 0.0 0.07727349399488348 0.25603374061999717 0.0 0.0039689294418090715 0.074918299342099912 0.0 -0.033434430700373802 0.19599660303431485 0.0 0.025667693245377488 0.11364480759649565 0.0 0.015064108921944985 0.1096885120443811 0.0 0.040606672565919016 0.066601843164474817 0.0 0.09043136746450714 0.14552223222760974 0.0 -1.0890969319275652 -0.17051081705421997 0.0 -0.058444047685029393 -0.043235897277631052 0.0 0.049605594363677064 0.10424302231596919 0.0 -0.016963084922398591 0.40120913881372872 0.0 -0.028129437193884277 -0.016178078653716343 0.0 -0.065038061464788577 0.22651207039475185 0.0 0.006099951570871287 -0.87929089326552956 0.0 0.051185560438717199 0.2378825447014839 0.0 -0.071748436009216515 0.18170904531365772 0.0 -0.0090041534226789899 -0.59090413165697409 0.0 0.0063468391717439454 0.084099157061503005 0.0 0.017643385147325531 0.028939804114985646 0.0 -0.0038588173270878157 0.10025148403646 0.0 0.014352097226556004 0.079432657438217369 0.0 0.034336311736820668 0.056672493655275269 0.0 -0.003804426589715082 0.068442751324929385 0.0 -0.044299314830346659 0.15023589327347095 0.0 -0.015457047060461832 0.16259450959762078 0.0 0.011383336343680994 -0.028049544066016452 0.0 0.018344944070974513 -0.70906494485754856 0.0 0.062995960424253594 0.16498668795661461 0.0 0.020454277063600701 0.036435804653889695 0.0 0.073696730745890726 0.078516547694424954 0.0 0.009302456959944333 0.24773658896642475 0.0 0.047146649935423862 0.17943166261119475 0.0 -0.014178939337116114 0.035661932796969442 0.0 -0.78119402718774866 0.18180185931718262 0.0 0.075706116890315742 0.17847353643916219 0.0 -0.00097791941521840897 0.086729401782460025 0.0 0.08431604965429039 0.1787088297558212 0.0 0.0053948736736444403 0.078593101916733188 0.0 -0.0016486876410421666 0.24975340341796812 0.0 -0.0057094859854197599 0.10605220583274236 0.0 0.01117699708657003 0.15498155477466183 0.0 -0.0026810017057309343 0.073889498096150724 0.0 0.0060280618261651098 0.13326725806976616 0.0 0.051445381803597978 0.12151796304924214 0.0 -0.031751675679276878 0.18327064378954672 0.0 0.017799895972146838 0.15328042399447075 0.0 -0.01988354200898812 0.1207977367890864 0.0 -0.04881329003299776 0.18631030002275178 0.0 -0.011417250885240315 0.15561043342465447 0.0 0.0019571647248643465 0.30067202406480342 0.0 -0.076911704930146568 0.19243858706959194 0.0 -0.032029235600482986 0.15218579518756034 0.0 -2.4931174982312232e-05 0.14427823019122077 0.0 0.038762270727629056 0.17102178936152176 0.0 0.051356773259126132 -0.76640257293473302 0.0 -0.015967634763059402 0.22789484147917721 0.0 0.060708690978218183 0.10365098180349443 0.0 0.0066012657962694066 -0.043590746274539655 0.0 -0.040619405599562008 0.17307887647960241 0.0 -0.562163981630312 0.012008142492676621 0.0 0.015563526617559165 0.05108033289724509 0.0 0.013240822220270149 0.20472266033658904 0.0 -0.018002632541798125 0.044079596241264535 0.0 0.018321120255528199 0.097951974699916289 0.0 0.013968661174458274 0.018308023254356653 0.0 -0.0091057853656548518 0.11262494031574413 0.0 0.039233900375671815 0.22517778329789453 0.0 0.04982181831848731 -0.91036561635650393 0.0 0.061752650985915647 -1.001405734837248 0.0 -0.020753144496338694 -0.9763829842196734 0.0 0.023691162213752781 0.13610048047435153 0.0 0.017880143885716238 -0.9107086081898621 0.0 -0.040150408784022922 0.10042455948230547 0.0 -0.0093350153858101359 0.0053550062393952769 0.0 -0.091746817693764512 0.10419159304375725 0.0 -0.0045936704035612896 0.0077860875591126283 0.0 0.026032589789360683 0.29468709027234796 0.0 -0.011887287678441993 0.084619237887623489 0.0 0.031943652116584703 0.24457514128524085 0.0 -0.00012942186821501833 0.014437752547798499 0.0 -0.0028821648388160787 -0.83776543712534701 0.0 -0.031955339789556253 0.10212297908977409 0.0 0.035799490123866851 0.11867568231273856 0.0 0.058602819592729692 0.15728881542568168 0.0 0.05081336250701169 0.04242353451467331 0.0 0.014732754307568022 0.11246077659161782 0.0 0.065387155834973371 0.039465250218546938 0.0 0.02745523232622521 0.04425997308218288 0.0 0.049488178302689104 0.084483100090306407 0.0 -0.0014644081902182027 0.06621136285961092 0.0 -0.0095652799472837613 0.029873039288023102 0.0 -0.034824520786743335 0.081026793012964643 0.0 -0.0071283492944854698 0.079377191915357442 0.0 -0.049248204026638986 0.023256149408800053 0.0 -0.011493277019820336 0.0079324102864599122 0.0 0.01898882212220121 0.14555030325703416 0.0 0.027966397563576537 0.11869836221132715 0.0 0.0031025472374395235 0.12902484251744128 0.0 0.0046606102856066589 0.060650957561446228 0.0 -0.061524190415943231 0.052984946178988357 0.0 -0.061004425520161748 0.070445839375203184 0.0 0.089841205258328144 -0.016956476947151924 0.0 0.013833562916512734 0.11176099833298399 0.0 </DataArray>