<?xml version="1.0" ?>
<VTKFile byte_order="LittleEndian" type="UnstructuredGrid" version="0.1">
<UnstructuredGrid>
<Piece NumberOfCells="0" NumberOfPoints="76">
<Points>
<DataArray NumberOfComponents="3" format="ascii" type="Float32">3.8613126804057454 5.9927138491520768 2 7.8943911882059874 1.4 2 18.042466905332063 7.9670047554870722 2 21.15921289298819 1.4 2 24.939876714970072 1.4 2 36.764964349563122 7.474666004692696 2 40.718134476528192 9.9429384916451902 2 45.34143298907177 3.4753222269683639 2 50.061086532517351 1.4 2 51.283169168647717 5.4673629681035134 2 55.696684940230348 7.6848078495559955 2 57.345045876747676 5.7047580882842155 2 59.750022405466382 5.9418902152662829 2 81.903227978948038 3.4500710015274785 2 87.605445613749353 6.2224124432993513 2 89.888482662331455 6.1568361429782383 2 91.151874574806257 8.6279258617062879 2 93.675718062445313 8.6999708905749742 2 98.6 1.4 2 3.6151821946731872 1.4 2 7.8914264666614997 7.8894680368965782 2 18.340373913590703 3.4638667433724306 2 23.160831163555127 8.6423238053075497 2 23.47380814487131 6.1107104555016836 2 35.777200024244664 1.4 2 39.861692540842157 1.4 2 46.347992134493275 5.8786800221402986 2 49.19975284233611 9.3998776247540032 2 52.144745265944742 1.4 2 54.001783921860067 1.4 2 55.959522327533435 10.295969911716476 2 59.417933562395447 1.4 2 81.727061344426929 5.6770977529415019 2 85.694405550730366 3.7214639674523768 2 87.577831974459798 3.7950741272641588 2 90.529783007665515 1.4 2 95.079712484031859 3.7366961044619562 2 98.6 6.6198656574980435 2 3.4712251320825214 8.4979226394910299 2 7.1903696883506925 3.6340599154699542 2 18.626248972262914 10.392533862625532 2 22.366302626620367 3.7456335108999714 2 23.05370640879984 1.4 2 35.75765586518677 5.4702435382775141 2 38.197002528523178 9.3482347879371765 2 46.254199654941971 1.4 2 51.373327838506547 3.3304465939452221 2 51.185380917866162 7.8967619321779061 2 53.335078777535806 6.5080601802978242 2 55.143987838045078 5.3043559770574191 2 58.19416675544533 3.6964921414509631 2 82.763433114662305 1.4 2 85.425390162406217 6.1738599227478659 2 88.762795351253999 8.5981407111416139 2 92.179917816857255 6.2792253543245762 2 95.675142711908208 10.561621764957319 2 98.6 4.0694599820272597 2 3.1430327989166837 3.6930902378793071 2 7.0263139254596725 10.408821283527427 2 17.146110578573655 1.4 2 21.381470199889907 10.699522436617171 2 21.425818033490085 6.0594909918970163 2 34.758040467908536 3.4558308156036524 2 39.086101527571486 3.6201868999475009 2 47.161604076803485 8.1451482336572454 2 51.524109209747493 10.627649938986705 2 53.450995498740092 3.7845901323314104 2 55.786961873088167 1.4 2 53.577091444365031 9.0616010863119527 2 60.204100167381291 3.5263483212566418 2 83.417746893724171 6.6215132260210607 2 86.578293438497241 1.4 2 88.528905928481024 1.4 2 89.444643208925257 3.6996959284337945 2 94.443410378261163 1.4 2 98.6 9.2050440859400737 2 </DataArray>
</Points>
<Cells>
<DataArray Name="connectivity" format="ascii" type="Int32">0</DataArray>
<DataArray Name="offsets" format="ascii" type="Int32">0</DataArray>
<DataArray Name="types" format="ascii" type="UInt8">1</DataArray>
</Cells>
<PointData>
<DataArray Name="Points" NumberOfComponents="3" format="ascii" type="Float32">3.8613126804057454 5.9927138491520768 2 7.8943911882059874 1.4 2 18.042466905332063 7.9670047554870722 2 21.15921289298819 1.4 2 24.939876714970072 1.4 2 36.764964349563122 7.474666004692696 2 40.718134476528192 9.9429384916451902 2 45.34143298907177 3.4753222269683639 2 50.061086532517351 1.4 2 51.283169168647717 5.4673629681035134 2 55.696684940230348 7.6848078495559955 2 57.345045876747676 5.7047580882842155 2 59.750022405466382 5.9418902152662829 2 81.903227978948038 3.4500710015274785 2 87.605445613749353 6.2224124432993513 2 89.888482662331455 6.1568361429782383 2 91.151874574806257 8.6279258617062879 2 93.675718062445313 8.6999708905749742 2 98.6 1.4 2 3.6151821946731872 1.4 2 7.8914264666614997 7.8894680368965782 2 18.340373913590703 3.4638667433724306 2 23.160831163555127 8.6423238053075497 2 23.47380814487131 6.1107104555016836 2 35.777200024244664 1.4 2 39.861692540842157 1.4 2 46.347992134493275 5.8786800221402986 2 49.19975284233611 9.3998776247540032 2 52.144745265944742 1.4 2 54.001783921860067 1.4 2 55.959522327533435 10.295969911716476 2 59.417933562395447 1.4 2 81.727061344426929 5.6770977529415019 2 85.694405550730366 3.7214639674523768 2 87.577831974459798 3.7950741272641588 2 90.529783007665515 1.4 2 95.079712484031859 3.7366961044619562 2 98.6 6.6198656574980435 2 3.4712251320825214 8.4979226394910299 2 7.1903696883506925 3.6340599154699542 2 18.626248972262914 10.392533862625532 2 22.366302626620367 3.7456335108999714 2 23.05370640879984 1.4 2 35.75765586518677 5.4702435382775141 2 38.197002528523178 9.3482347879371765 2 46.254199654941971 1.4 2 51.373327838506547 3.3304465939452221 2 51.185380917866162 7.8967619321779061 2 53.335078777535806 6.5080601802978242 2 55.143987838045078 5.3043559770574191 2 58.19416675544533 3.6964921414509631 2 82.763433114662305 1.4 2 85.425390162406217 6.1738599227478659 2 88.762795351253999 8.5981407111416139 2 92.179917816857255 6.2792253543245762 2 95.675142711908208 10.561621764957319 2 98.6 4.0694599820272597 2 3.1430327989166837 3.6930902378793071 2 7.0263139254596725 10.408821283527427 2 17.146110578573655 1.4 2 21.381470199889907 10.699522436617171 2 21.425818033490085 6.0594909918970163 2 34.758040467908536 3.4558308156036524 2 39.086101527571486 3.6201868999475009 2 47.161604076803485 8.1451482336572454 2 51.524109209747493 10.627649938986705 2 53.450995498740092 3.7845901323314104 2 55.786961873088167 1.4 2 53.577091444365031 9.0616010863119527 2 60.204100167381291 3.5263483212566418 2 83.417746893724171 6.6215132260210607 2 86.578293438497241 1.4 2 88.528905928481024 1.4 2 89.444643208925257 3.6996959284337945 2 94.443410378261163 1.4 2 98.6 9.2050440859400737 2 </DataArray>
<DataArray Name="forces" NumberOfComponents="3" format="ascii" type="Float32">-0.022487747731943689 0.21749861133889203 0.0 -0.047966999498958218 -0.98279567056812955 0.0 0.019062425574246089 0.30013857151398565 0.0 -0.013088808750377712 -0.51845698621089131 0.0 -0.016403386024486877 -0.67759864325473695 0.0 0.13495323104719331 0.23805828426722273 0.0 0.0441145595051749 0.33239231463779795 0.0 0.0037727667258809494 0.1023408594633396 0.0 0.0077954789708098993 -0.64096403940209623 0.0 -0.029772622213385336 0.16187810518655629 0.0 -0.034799772979689392 0.23201005962842491 0.0 -0.006306985848314392 0.1769873740517762 0.0 -0.03677298548662622 0.20655221660514414 0.0 0.04380915935359575 0.069908639512334558 0.0 0.076885023833155292 0.18708513055181691 0.0 0.062380556042673924 0.19968086877721591 0.0 0.052737994938700891 0.24243459528273076 0.0 0.047197289512444049 0.19840068405367206 0.0 0.86856696963563573 -0.40322052627176547 0.0 -0.012030385293576223 -0.57316829980918949 0.0 0.017245061602662648 0.20707386057088661 0.0 0.019979510280531576 0.14261280211590247 0.0 0.06773767097653377 0.23934996065239494 0.0 -0.049859752660911361 0.14985274985322869 0.0 0.030068295141548518 -0.78121321636042951 0.0 0.033541923555773345 -0.82447441187634374 0.0 0.050435173563072838 0.13979694137963078 0.0 -0.051154564538967634 0.32343407027675231 0.0 0.00095984667741566554 -0.75006419059493357 0.0 -0.012026517350491043 -0.37336986949792333 0.0 0.073990212041883163 0.22905628322849927 0.0 -0.02901244836726169 -0.68349034009877818 0.0 0.040313866481748992 0.1156681937668987 0.0 -0.020765276324266321 0.033747157890093693 0.0 -0.022425889734675519 0.10717234296775331 0.0 -0.010005491477057885 -0.45717783157991287 0.0 0.00037931097567157901 0.090639688971310542 0.0 0.55894551398898851 0.25101594917320957 0.0 0.02373478441399679 0.29423366348782831 0.0 -0.047492871808584969 0.10791406194237015 0.0 0.043233498281795416 0.29360516539719728 0.0 -0.039728642964783262 0.10462178773447728 0.0 -0.022839830556873011 -0.55433860308696326 0.0 -0.0015081883001920593 0.20707517224610708 0.0 -0.010829220954366156 0.44986266100385625 0.0 -0.0081523080406664672 -0.61085746503939931 0.0 0.041318636502325146 0.08554239892545451 0.0 -0.052443121708574403 0.24008357158383989 0.0 -0.045207965170528122 0.21265092871155192 0.0 0.0043527947115161725 0.23019590871510809 0.0 -0.051310182277830907 0.10866555800606532 0.0 0.055746838503335283 -0.56131708367326549 0.0 0.059611726694673718 0.085740854067404726 0.0 0.042238442095058448 0.2318351183822083 0.0 0.029102690714174144 0.16897724109877535 0.0 0.0028067034240938718 0.24833281463688048 0.0 1.0885009596031403 0.16429497235176727 0.0 0.0082907276795625151 0.12381227943081247 0.0 0.029700596245732902 0.24895643931675629 0.0 0.049384183035624973 -0.91186797572535405 0.0 0.049588354974311827 0.27030374001940616 0.0 -0.060939436553002088 0.15830046793996533 0.0 0.022870986370834179 0.12678238056549535 0.0 0.055970556192289314 0.10254696653640105 0.0 -0.063530828028870834 0.23439503863440747 0.0 -0.015912182690736687 0.26327735830705468 0.0 -0.0029124448062904928 0.14640234168518956 0.0 -0.0039258331926237677 -0.81269500684573359 0.0 -0.011637434140132741 0.26058244946667747 0.0 -0.055819386408180904 0.090452768818875859 0.0 0.045094866193567396 0.34373868033509092 0.0 0.027559820118623013 -0.48917552902955058 0.0 0.012847595722965607 -0.52107840189190746 0.0 -0.013809139469528262 0.12089576671376626 0.0 -0.031369344536015697 -0.45138697136800493 0.0 0.17148018214099212 0.30518931580541914 0.0 </DataArray>
<DataArray Name="radii" format="ascii" type="Float32">1.4 1.4 1.4 1.4 1.4 1.4 1.4 1.4 1.4 1.4 1.4 1.4 1.4 1.4 1.4 1.4 1.4 1.4 1.4 1.4 1.4 1.4 1.4 1.4 1.4 1.4 1.4 1.4 1.4 1.4 1.4 1.4 1.4 1.4 1.4 1.4 1.4 1.4 1.4 1.4 1.4 1.4 1.4 1.4 1.4 1.4 1.4 1.4 1.4 1.4 1.4 1.4 1.4 1.4 1.4 1.4 1.4 1.4 1.4 1.4 1.4 1.4 1.4 1.4 1.4 1.4 1.4 1.4 1.4 1.4 1.4 1.4 1.4 1.4 1.4 1.4 </DataArray>
</PointData>
<CellData/>
</Piece>
</UnstructuredGrid>
</VTKFile>
