<?xml version="1.0" ?>
<VTKFile byte_order="LittleEndian" type="UnstructuredGrid" version="0.1">
<UnstructuredGrid>
<Piece NumberOfCells="0" NumberOfPoints="15">
<Points>
<DataArray NumberOfComponents="3" format="ascii" type="Float32">28.545374040679206 0.7 2 64.155695545094829 6.48214974823434 2 68.133134593463467 0.7 2 71.607492325235341 6.5401453364474582 2 72.468711372856873 5.4605126109237023 2 73.454003171540975 0.7 2 14.331737836935458 3.6504599127907191 2 31.995562542151301 5.9261491837430205 2 73.673622548355226 5.6679341195043031 2 66.465956525689194 3.5178537840527775 2 28.551873336730058 2.5042368048689467 2 70.775595461954822 3.0761461460169426 2 71.954310684900719 3.5755118236841139 2 75.920293634046644 3.3893098795114751 2 78.292976969952122 6.1744593711878242 2 </DataArray>
</Points>
<Cells>
<DataArray Name="connectivity" format="ascii" type="Int32">0</DataArray>
<DataArray Name="offsets" format="ascii" type="Int32">0</DataArray>
<DataArray Name="types" format="ascii" type="UInt8">1</DataArray>
</Cells>
<PointData>
<DataArray Name="Points" NumberOfComponents="3" format="ascii" type="Float32">28.545374040679206 0.7 2 64.155695545094829 6.48214974823434 2 68.133134593463467 0.7 2 71.607492325235341 6.5401453364474582 2 72.468711372856873 5.4605126109237023 2 73.454003171540975 0.7 2 14.331737836935458 3.6504599127907191 2 31.995562542151301 5.9261491837430205 2 73.673622548355226 5.6679341195043031 2 66.465956525689194 3.5178537840527775 2 28.551873336730058 2.5042368048689467 2 70.775595461954822 3.0761461460169426 2 71.954310684900719 3.5755118236841139 2 75.920293634046644 3.3893098795114751 2 78.292976969952122 6.1744593711878242 2 </DataArray>
<DataArray Name="forces" NumberOfComponents="3" format="ascii" type="Float32">-0.027427176384694274 -0.4718774991079237 0.0 -0.040354735813705044 0.10354718226013727 0.0 -0.0012680309756623043 -0.69593795296287797 0.0 0.043665328020474126 0.17439403303329906 0.0 -0.0076917494467071967 0.10954541275745303 0.0 0.015656691672902123 -0.60073538116747938 0.0 0.016037135804396134 0.028981510523369919 0.0 -0.00010113226629911154 0.10312370329425154 0.0 -0.0023491549249954058 0.1591474777148312 0.0 -0.026295986579261577 -0.035450366733455058 0.0 -0.024037312859409743 0.20982446104041486 0.0 -0.071973911138660807 0.083141286130045011 0.0 -0.066007878526108427 0.093308790842171974 0.0 -0.042986150236481419 0.14120378950441653 0.0 -0.00062736414594468867 0.1373984595354619 0.0 </DataArray>
<DataArray Name="radii" format="ascii" type="Float32">0.7 0.7 0.7 0.7 0.7 0.7 0.7 0.7 0.7 0.7 0.7 0.7 0.7 0.7 0.7 </DataArray>
</PointData>
<CellData/>
</Piece>
</UnstructuredGrid>
</VTKFile>
