<?xml version="1.0" ?>
<VTKFile byte_order="LittleEndian" type="UnstructuredGrid" version="0.1">
<UnstructuredGrid>
<Piece NumberOfCells="0" NumberOfPoints="436">
<Points>
<DataArray NumberOfComponents="3" format="ascii" type="Float32">1.12 8.6607456022648783 2 5.3617291789215109 8.0223302007532205 2 7.4699451891523019 1 2 12.64420026623036 1.12 2 12.619575433516587 7.892649261351842 2 16.699812196962757 8.5383378066667195 2 19.940797488683643 7.4368313657438101 2 24.837918850822305 9.7754795006044031 2 29.273184166201148 8.2936339974012458 2 29.886093888731661 17.349895345345811 2 32.949623347624581 9.6310306230413847 2 35.236413068571323 6.7346415247332629 2 39.459756673502547 10.923431849856597 2 42.220247048406648 7.6231576342684457 2 46.375052048553478 9.6948852649179251 2 48.593159626710793 9.4246777965731994 2 57.689285118045888 9.7723193313772239 2 60.302012082155059 15.789303944665411 2 60.840928360837225 1.8453173203162432 2 64.321976669827166 1.848460996097925 2 69.616229526575708 16.726981664077343 2 70.364935181638444 8.3808591949610296 2 73.699726465523113 8.0216609558862952 2 72.287790668047052 15.770339427546061 2 76.412853124226203 9.738224490526397 2 77.309071245154584 3.1385821938932392 2 82.662730396409245 6.224178577015171 2 85.415592832018618 5.1880131319796989 2 90.605604848520173 6.6098031361969207 2 97.341328129567174 8.2408734101440633 2 2.2179488199537207 1.12 2 5.4781856941230149 1.12 2 7.7784524309188061 7.6528426265346425 2 11.223171243029947 15.83162830887181 2 15.811174121396119 4.9290056610891728 2 13.11310071494678 12.971600847151365 2 18.536798611705457 2.0976355133615376 2 25.811897251430164 4.7461304495552534 2 26.142404619031712 15.115493748100132 2 32.719366018129371 17.650639493788919 2 28.177331092201118 1 2 36.12300531721614 1.12 2 37.163642572334503 6.9053833303774503 2 40.598990381394316 3.3683506952615438 2 46.619305978820201 1 2 46.549753607960454 4.70452466351521 2 56.078909039517079 1.12 2 58.916909285847211 5.3445134036100939 2 65.081547744085157 8.3491408464075771 2 66.018657142985319 10.953562948489083 2 63.941390130299624 15.32046912867323 2 68.499562683217349 2.2187261466904982 2 73.115513148151805 1.7234181743159962 2 80.185381101355034 13.766798874627824 2 76.274929884549607 1.8046135641356369 2 79.977235366151945 6.2413576901469465 2 83.336855429690473 1.12 2 83.561746537083337 13.967988956779342 2 93.744385936419306 7.8542956909125889 2 95.375605057891761 4.200184175728392 2 1.5155072304575778 14.062109360857699 2 5.2166300053534789 13.733744424492846 2 6.9804634919925412 2.2341269175765208 2 12.28053947097694 3.4168124472917949 2 10.985172452573966 10.804864426414978 2 19.473139432827825 6.6576475696625188 2 21.686596454655859 12.076329744845786 2 24.010236376549074 6.3096649534047984 2 27.579500049092079 8.2092845618267987 2 25.817709599486026 13.688994710898987 2 29.032774498017396 5.1117856325440663 2 35.49089960060504 11.112920073772335 2 39.118288299738438 8.9159376744852299 2 41.598918197168459 10.817332199992251 2 46.851031269327216 16.234097817483491 2 48.84363281509696 5.8968595679204343 2 58.11294702689338 13.978586989195067 2 60.17741205527453 10.53283814848313 2 62.472993503840463 5.7680060638656698 2 66.014680565794464 3.9013027859760578 2 68.311159110448472 13.009724734497656 2 70.555099060930331 11.238062929215221 2 72.447717761243666 5.4891767003460332 2 76.121508474910144 14.17042973639216 2 73.348681747569373 11.882250145392778 2 81.037042799561775 1.4891205296999583 2 81.519576036260361 12.420930561035329 2 86.289161421316834 1.12 2 92.43679407340187 1.9064052008003727 2 96.211331581505846 10.5273933395745 2 1.12 6.5151773517590783 2 5.3117390372680502 5.3124148009687753 2 8.8768684756103884 7.4659251210747977 2 9.2275709793230902 11.751983155630288 2 16.495058042551385 1.12 2 14.135603472558723 9.5645436867085074 2 21.21525899672131 3.8432942886855885 2 24.085745261165197 1.12 2 24.293352398705011 12.931448621629295 2 37.427577404509428 16.023806791731626 2 31.377339262127816 1.6123405648403391 2 34.352894641580711 3.5684813939657283 2 37.341026296873402 3.2559945664514802 2 41.196495477385589 1.8955760838810849 2 45.638714200277441 4.6081686904619765 2 47.018448395469143 2.3838377065519833 2 54.096709051061033 4.6792802587479461 2 57.720450246448522 1 2 61.036670829393486 7.4029494137536336 2 67.635716022806761 6.6173025061578503 2 65.836649664685211 14.531924637110448 2 69.441586910382625 4.1897743848848723 2 71.275067309799979 2.6161933554885937 2 78.071458184866245 18.91788336592133 2 75.939920788708946 6.0303206555515843 2 80.019633020412613 9.8856596122068261 2 82.927948643934229 4.8038697788552271 2 86.215979455193803 12.011248941627581 2 93.695881236844002 5.0323870268699213 2 95.229413405198571 1.12 2 2.5933015549250018 12.073988213821847 2 4.1949396591859562 9.3459203878613391 2 10.116381870248249 2.1522106244050603 2 10.893494952572677 1.4213641643442172 2 17.419466370463358 11.138294021609182 2 19.363036534112272 10.178434763390182 2 25.425390574915269 5.4286246680245762 2 29.646825292972764 12.009807218141718 2 30.731511169491107 12.555036658733878 2 32.495948555732063 6.4911565568362093 2 40.121081120251617 13.864868990074134 2 44.152768632126737 10.991105783217664 2 49.368448452662356 11.341609849298473 2 57.065232040008688 12.837812646624723 2 59.97431668694027 12.378721170863477 2 61.422595047272765 1 2 63.52138517259673 1.4159320051917532 2 71.892692362006343 17.672679265761616 2 70.347708265005593 10.258700436768814 2 72.166156764210811 13.653039997212526 2 81.509471247637734 8.5259119221318471 2 85.425591224530919 7.2105906453240705 2 91.204827254001586 4.6216198182331132 2 96.260662165949299 6.028279136623877 2 1 1.3129426160065207 2 4.5457297300364852 2.3347303138521034 2 8.2526181827223581 9.5568760675497764 2 13.615078205794269 17.328011500111998 2 16.026291836764464 4.0459075894325727 2 16.566204293411367 13.206780433458583 2 19.481805159221224 1.12 2 24.539694387899548 18.100556811272156 2 33.794631257160177 15.843318347755577 2 27.420302885650823 1.737943098692573 2 33.520401732722107 2.6731841902924813 2 36.510096246195722 4.4855384593738927 2 40.060031640169264 5.7937190753644146 2 43.320088832598799 2.3327093253075191 2 47.891768574427324 6.9826357727589539 2 56.207950816393435 2.6702181709389241 2 59.409983626132195 8.1386438246422301 2 62.67874650577599 14.393037719858814 2 68.223997943512629 1.5654848577258547 2 72.422477961340803 1.1234951413541208 2 77.521574648777431 12.915461442756069 2 75.202958444422777 1.2121783654256975 2 83.317999284418036 3.6598753433793938 2 86.211738295763894 16.345611624054236 2 94.728779071556872 10.735800876935976 2 96.400746000529068 3.7273673507354319 2 1.3436251927060912 12.191274982966764 2 5.1305369505984997 10.97637730652378 2 8.7652786822052065 4.4124802860917631 2 11.590530314668289 12.991127774688453 2 18.667738635310965 5.8829926682671774 2 20.661750152263469 12.592861594685527 2 22.095872663435987 4.2168934237020377 2 29.189414866604594 13.506374275698443 2 30.382078013962957 3.8981097003809877 2 32.847907154181335 12.270513414177136 2 36.444733440106823 8.5684528394465254 2 42.775064673685613 13.238226647529478 2 45.254999397863493 12.020315659364597 2 49.9226275042301 5.4418544964516844 2 59.288357690210766 17.759491003550703 2 62.937163674598914 11.802573033601439 2 67.03350254851668 16.642254229383173 2 69.895543518252452 14.944528140536054 2 73.143040793497377 4.9036438869717323 2 73.869451838613713 17.807361468858289 2 74.752152151779541 14.09561374698405 2 80.353445435146412 1 2 82.665043529570909 12.052295729978793 2 86.829575687957231 3.5328681582158272 2 94.215557966886976 2.6632810080572749 2 95.525612146147878 13.052798693482234 2 1.4995897318517089 4.052043684194504 2 2.7459607304454492 4.2528580300853038 2 8.948270762545727 15.260313269346682 2 15.730785677817311 1 2 22.591233154147893 7.3391810276665623 2 27.338015241461331 2.758606908507097 2 26.187344292729751 10.77975220488884 2 36.996371896059834 14.27743496559853 2 32.202945688114355 1.7225768834074946 2 39.094508047864366 1.9035061014389025 2 43.777912453798223 1.5722873157708523 2 42.930237042991301 5.1684179787631788 2 49.69853884322324 1.12 2 55.700248063366175 5.8093286171356029 2 60.337202051663581 2.5971740282138573 2 64.90622418640956 11.182328347858114 2 70.736603975608134 3.1257915840647112 2 81.888333065498685 17.538691536396094 2 81.055871570337146 4.0999702684042276 2 88.193696979242119 16.940143674665237 2 91.160736912126197 2.4217969192157485 2 97.347464543215565 1.9172223849733361 2 11.599544735337611 4.9315931280859386 2 32.130345971931519 9.4212543025352566 2 43.369636589935887 7.5851312116921443 2 75.908898035554913 8.9946887750245423 2 76.574387220007878 8.4262426199178506 2 77.381447176055261 3.7519442727101455 2 23.896401053047864 2.2254169654378351 2 64.63638459751779 7.8535348541225805 2 67.500285507970375 9.7221788145126968 2 79.289324945521685 6.4655575931786275 2 12.111503433529807 4.2366581163155486 2 26.717964185808249 8.3202699605306059 2 62.8852316199035 5.1006904524242813 2 66.485066211300193 4.4222399220934401 2 9.745601979754337 7.3274023157791373 2 14.948408197669359 9.0713995538140146 2 34.026857117686205 4.4362096675310694 2 61.670657002358716 6.6000919204191586 2 67.5087273521996 5.8133829198571334 2 68.877419021108508 4.5774392448811909 2 73.683257332943555 4.3598997954088103 2 77.746601048443381 11.98812422719358 2 2.2013245266866091 9.1762265304164483 2 11.942836424228336 1.12 2 30.017395022367097 8.0179614421447347 2 29.01987180150703 15.647376893596443 2 33.272773195256441 6.4966364484269601 2 45.866203649223898 8.7664626898739488 2 49.659629580905296 9.8234014480517686 2 57.042841718373396 10.583250500597249 2 68.401240459662517 17.845738080302624 2 71.009791687006597 8.2196958954029746 2 84.71793633270147 6.5803083444036226 2 90.646295189430603 5.4176832000615613 2 95.874456036798989 9.5098196832489901 2 2.0504845081896037 2.3068858572480231 2 5.4075770558244161 2.1811838090044131 2 10.235343760875095 17.289540062578162 2 14.393540570270671 12.142061214506395 2 26.339431132524609 16.908989607200922 2 31.927177504699294 15.710115433634208 2 37.324616073022995 1.12 2 41.776667265844466 2.9230026131021809 2 55.384190726083219 1.12 2 60.119158795238519 3.777679306633368 2 64.384593425706868 16.805962298101498 2 83.851892756662423 2.6580328933630235 2 82.675233168008376 15.595042315988307 2 92.776280446548881 8.0230548863424289 2 95.0599562303982 6.1085817137580252 2 1.2 16.036519416641895 2 6.3920864729450244 12.814827489526161 2 11.410312388152889 10.141532720342722 2 20.838167665082469 10.543446998820105 2 28.416212562842798 4.9237600730828461 2 37.870351241883171 9.5129796444556884 2 45.020963922418083 17.393242372934129 2 76.975098199247583 15.791977422068042 2 81.424486071996782 13.765920320756434 2 84.674043833172831 2.4107390914802136 2 92.328356040002149 1.12 2 97.766732595658269 10.703119144980121 2 1.12 7.2117837020125588 2 16.862650165009935 2.3508251364993393 2 24.823720412653046 1.12 2 23.020388080431768 13.278133199066088 2 35.786517548868297 15.544018612891351 2 54.024935075655037 3.3608852537033798 2 78.233040244723412 16.957466021995121 2 85.930920917750797 14.087892707744247 2 92.824617281194961 5.3512816256990146 2 95.877782723259699 1.12 2 34.318005996934907 6.8375213314365428 2 41.440721409896732 13.407501482196707 2 48.072939020090189 11.405633182365477 2 57.419510724887211 11.643113734705217 2 73.014538985709734 19.478990164755302 2 80.626675663293355 8.6984408176979322 2 85.456764675742107 8.782407920172977 2 14.233544739821637 15.541704249556677 2 16.471115276188634 14.741692258560922 2 18.701219986149692 1.12 2 27.265793613969208 18.553505819613861 2 35.815045374781704 17.562063008472386 2 39.665370668401856 4.8888308165831962 2 57.175958401706232 3.2621186407207521 2 61.482504814766507 8.2585413315988347 2 62.72571075328127 17.19082945043818 2 84.419935728993224 14.945779438380363 2 5.8950912640258615 10.203885911421793 2 12.386595499030626 14.344382450635603 2 19.452718113340612 14.031365669694134 2 30.723683931809212 4.4798506992835057 2 38.189810725460859 7.0697048441926631 2 44.124470539444495 13.686418137434567 2 46.830103408925808 11.622543446800373 2 57.714798058764117 16.165824849609859 2 62.204863983220761 12.312997816312047 2 66.747604374482961 18.898141045011133 2 74.336568185187687 15.695001787346785 2 83.400209174441727 11.493383384917752 2 86.859129491102124 2.7391657441308936 2 94.926292906172151 3.1915809877362356 2 94.976110688323445 14.388918450135552 2 9.3486882927120192 13.040351989830123 2 25.123406177624165 10.836749097409948 2 38.896120512811713 1.12 2 48.815925328077313 1.7200613208548328 2 56.179484728775236 6.3220771250943217 2 79.927272055919417 17.788100877491239 2 87.634850858075666 14.961492016725066 2 98.039903681651651 1.12 2 3.7443797874321598 8.1590518749454084 2 7.8224825367537205 2.0094952682043461 2 15.722454854316128 8.1127953856685942 2 19.200033150629235 8.1876651760939865 2 24.285713884901199 9.0146235957001881 2 40.353883200181002 10.975979379754198 2 61.437967636525123 15.28166721408723 2 60.081759414226937 1.0025014365389509 2 65.343731707692243 1.5740623428434508 2 73.176637599646284 15.019561382073011 2 82.298996679947507 6.8867540299096976 2 7.2792758311507777 6.7474097966474123 2 16.114651923104944 5.7294943436059222 2 18.145587907785814 3.0946053506087914 2 28.175365618969845 2.422223770530525 2 36.807006100999558 5.5275475214724183 2 45.8227558615717 1.5809452874633241 2 47.021459575680886 5.4621839113803823 2 67.666515410614181 2.1624645311108637 2 72.377020999356247 2.1004812758116937 2 79.54979336897344 14.546037862155242 2 75.507208339646496 2.0856742193050994 2 7.192615943121309 3.0922606388502079 2 18.426391375329402 7.3711170786141835 2 24.851657862765371 6.4011515676631285 2 27.040460774204565 13.219592989214414 2 34.892565662564515 11.762894317141757 2 41.21240599035908 9.9752763729966318 2 49.554719785059028 6.5437591014894831 2 59.536547790875403 14.458311115875114 2 59.585792975882434 9.8988562369773447 2 69.148674116832424 12.607046532121617 2 70.833348575770074 12.057644707495692 2 73.907247995133119 5.4862735024027964 2 73.673290571732466 11.177282304798068 2 79.700391893884813 1.5049543220530617 2 4.398547481179385 4.972146122243517 2 8.0234864505938397 12.510425733845548 2 21.005926488159517 4.8933025705592836 2 32.520990556861236 1 2 36.659607592929405 3.6372315989661579 2 40.32379725132575 2.499686827486995 2 45.337344145783284 3.746164996584266 2 47.643334321035404 2.806203231831331 2 57.597559265468689 1.785275362340089 2 66.186974114936859 13.681800958110845 2 71.303974704935186 1.8234555924042162 2 83.577442961485858 5.2937057644101939 2 3.1066147692239223 12.994460119064499 2 4.5724389861175663 7.7210454932091936 2 11.113449268282018 2.3015788556518109 2 10.18433006975803 1 2 18.053913398592705 12.34305508287944 2 18.489398991634786 10.706349879875457 2 25.486271618183288 7.0260162480391788 2 28.841586114886681 11.27495045899814 2 31.676437435914721 11.912083497223053 2 44.395360519895618 10.151398190478888 2 59.989947821375068 13.405624496170011 2 61.82939287121782 1.81023039394606 2 64.856398216425504 1 2 69.597138191429309 10.522887689108407 2 71.341604295494761 13.028208884502861 2 91.871535983289476 5.5921036965472144 2 96.763288671465872 6.7325237196807581 2 2.7487809226845394 1.7373652679066094 2 4.2488005059811016 3.1953254714143298 2 7.5169548813793048 9.1305454835308595 2 15.090252633588769 4.6529701764107214 2 27.311413803067438 1 2 33.148922433743628 1.6888708005712803 2 35.861370324452324 3.3254037972202259 2 43.319629551217226 3.1687752442946389 2 48.697867653390773 7.2642425221175468 2 67.337473076538657 1 2 71.008158903873749 1 2 78.801898489330767 13.520935580805444 2 76.239133746294812 1 2 84.143816240187775 3.9044977874065445 2 95.537106764391893 11.638231620316397 2 96.023219112907924 5.0208950325763917 2 1 11.366625617614572 2 8.8431518979411354 5.1982788116239931 2 17.939173505778214 5.9230970006445283 2 22.112954608486383 5.1975625097141611 2 30.501943042304124 13.647743071683948 2 32.063280227456907 13.269638531996423 2 50.108008234814825 4.6697386374765335 2 70.878690026361681 15.084916819773081 2 72.724338330188388 6.2146831108177985 2 75.639148628625492 15.437760697239703 2 80.275872228655018 2.2643919768175009 2 1 5.0936416461747873 2 2.345671160372282 4.7581606900987312 2 17.222818102226434 1 2 21.341562259047997 7.8574328995937019 2 28.840753770158322 1.8638559578379907 2 36.081362134557438 13.09311711140111 2 34.003507731511391 1.9761985820263537 2 43.283024317204152 1 2 43.709106743006039 5.3476450533688968 2 59.708126157994251 3.2650583351940679 2 65.413140318480799 10.179575169199666 2 71.910790918245837 2.9489136138800407 2 81.260835314450702 3.3455145519291154 2 90.403855771097284 2.2533779189166263 2 </DataArray>
</Points>
<Cells>
<DataArray Name="connectivity" format="ascii" type="Int32">0</DataArray>
<DataArray Name="offsets" format="ascii" type="Int32">0</DataArray>
<DataArray Name="types" format="ascii" type="UInt8">1</DataArray>
</Cells>
<PointData>