<?xml version="1.0" ?>
<VTKFile byte_order="LittleEndian" type="UnstructuredGrid" version="0.1">
<UnstructuredGrid>
<Piece NumberOfCells="0" NumberOfPoints="330">
<Points>
<DataArray NumberOfComponents="3" format="ascii" type="Float32">1 8.2290410778841636 2 4.9536896838487952 7.9262593196664248 2 7.4027166662841823 1.4800000000000004 2 12.816913523598719 1 2 12.482061723765071 7.7788155493972022 2 16.158960688022074 8.4704556464135532 2 19.806288738031132 7.5461102946734187 2 24.800151990169649 9.4797894131250455 2 29.372686060698666 8.0076604710865045 2 30.268165242396908 16.478947689922229 2 33.291842145135327 8.8205764942641789 2 34.894096742995423 6.9657195564245704 2 39.651088536269157 10.704128370535674 2 41.891238190265291 7.447095160119253 2 46.30603278431542 9.5084286659239279 2 48.535867320138358 9.2001357424671131 2 57.458154659670676 9.428187739628326 2 60.801861899907323 15.354939581976639 2 60.912416735501552 1.4800000000000004 2 64.909062290727775 1.4800000000000004 2 69.800265409041728 16.814423431656436 2 70.313024776204728 7.6088291562453652 2 73.940883451427069 7.8782269445806792 2 72.631177239942517 15.722319378289731 2 76.237051182457392 9.1808750608121841 2 77.574831853869554 3.2573254253847064 2 82.505996881874196 6.521511552919236 2 85.46135868853186 5.0500685814581452 2 90.102200826634956 6.5445228057281497 2 97.588643125750508 8.3223032682460403 2 2.5881660342721911 1 2 5.4014938835237896 1 2 8.199537103300619 7.1407184291911658 2 11.109508542134066 14.904622178489495 2 15.550338365771267 4.9867415100917194 2 13.642142975323875 12.919862747637149 2 18.600612823320137 2.4130252487297801 2 26.068930501137316 4.9237006846883142 2 26.454664377336979 14.822919821182705 2 32.552705028752072 16.603253876345004 2 28.326935557594929 1.4800000000000004 2 35.780385503592377 1 2 36.81962232399156 6.7905890446796455 2 40.393100998115571 3.598432749709878 2 46.595212023509902 1.4800000000000004 2 46.463279936527123 4.8966202928172544 2 56.198267617110702 1 2 59.340352774603986 5.4611668312436912 2 65.082781470192145 8.0209611088337649 2 66.230769961915215 10.318507024618677 2 64.119122537870638 14.935204914271992 2 68.193308398332391 2.2024483023791355 2 72.794752540476125 1.4800000000000004 2 79.860881884592672 13.706853375774713 2 76.220547999920171 1.4800000000000004 2 79.687120908126616 6.3898477083309455 2 83.780566999078744 1 2 83.21576379077122 13.501554766967562 2 93.557139384084934 7.9558870149789183 2 95.457759291395234 4.2662531162092652 2 1.8959313885519282 14.016042097993541 2 5.0611042288040453 13.277335171238168 2 7.0967919110563411 2.333706726678499 2 12.607089386618043 3.2480108451566729 2 11.32775315472583 10.528573293293594 2 19.051165622962095 6.6769217739439402 2 21.94413399702438 11.917264976507335 2 24.503412006375733 6.3089386816448982 2 27.636532152570894 7.8443175388536135 2 26.134686280576368 13.341530425743896 2 29.066117535537742 5.1499641282836057 2 35.410286814533784 11.04812879560377 2 39.157887568546776 8.4759653543956475 2 41.3220152258083 10.497241889328182 2 46.690994499101002 15.706454435498852 2 49.067644030976197 6.1911008069186515 2 58.501062893447916 13.616732824382108 2 60.254513614957126 9.9793020078792125 2 63.097264908942741 5.8880300317045196 2 66.231139670122644 3.870612717646071 2 68.502852528717085 12.662067688691968 2 70.298099886710304 10.977576812457984 2 72.826742280159593 5.5754715328233599 2 76.39988407961404 14.031189043226615 2 73.564907266441665 11.321213957464277 2 80.636410000191745 1.4800000000000004 2 81.318343564041669 12.293467688113052 2 85.476884632920118 1 2 92.875750594764341 1.865518379605922 2 96.711403246127631 10.746623986129981 2 1 6.496920383678944 2 5.2228798689166425 5.030297452150565 2 9.1965778169419785 7.0418208651710756 2 9.2302814151479069 11.89801032375491 2 16.678256494773731 1 2 13.790777281508047 9.2740397818802691 2 21.257362746092326 4.1774494724793163 2 24.587696484004553 1 2 24.531353632361473 12.951293482330367 2 37.357343823547779 15.463443705035374 2 32.016257471025263 1.4800000000000004 2 34.140870923507869 3.4426939666168392 2 36.87626051922777 3.3793610353667054 2 41.003384796376224 2.3703147807607077 2 45.731413761352655 4.5031910880100705 2 47.535817384226043 2.1948096453057762 2 54.618996494114754 4.7842011809990943 2 57.773377283498895 1.4800000000000004 2 61.076878396783364 7.0690403830980371 2 67.598860796359006 6.4503378396489675 2 65.726718570497994 14.203159253750675 2 69.362354189480556 4.7150916048254743 2 71.566111400529564 2.5269198402064572 2 78.122953743839517 17.914426844429961 2 75.81546453116222 5.8368601266828604 2 79.955159274327514 9.5024257574198039 2 83.374040409629714 4.6327074419899787 2 86.31170797661639 11.751541964045009 2 93.48776801300896 4.7760192970214623 2 95.164014567324941 1 2 2.7140363720148026 12.268274204081793 2 4.2497058020800775 8.7616445111904646 2 10.529018853806269 2.155402406757053 2 10.974902825970565 1.4800000000000004 2 17.364158860749566 11.468679743210652 2 19.291850169748269 9.9669337325287586 2 25.338327004249024 5.6063233046592735 2 29.269818866744995 11.373429733631461 2 31.199355558745268 12.729345308986007 2 32.525477280266266 6.4009947485377712 2 40.111472382279096 13.536332446079852 2 44.198332253705608 10.490298691955635 2 49.574240666418852 10.87029413533285 2 57.423311312169005 12.377241487824147 2 59.942128095224717 12.563564529481409 2 61.624128440555999 1.4800000000000004 2 64.204602579788244 1.4800000000000004 2 71.446204484203463 17.480380419349171 2 70.073390270417704 10.069914889400561 2 71.887708955548334 13.219651737023234 2 81.455144905726002 8.4177222927100761 2 85.332036203964307 7.053606076129177 2 91.411490057402588 4.9119613966180937 2 96.623438716422868 6.1533488460087353 2 1.6637215645555712 1.4800000000000004 2 4.4395956585806662 2.4332136570866711 2 8.1347641237812844 9.239088710323422 2 13.87363483793729 16.193866307256656 2 15.692442836717381 4.2785140281879501 2 16.427230952509106 12.991116146896928 2 19.451938978214727 1 2 24.780042169144586 17.217367307475087 2 33.989594974574139 15.272068220811731 2 27.542156140781131 1.4800000000000004 2 33.852244302768298 2.4372536142604289 2 36.284264094084129 4.0260162399709349 2 40.154359098684623 5.6681023297515107 2 43.245559644022094 2.4233932367931441 2 48.084124894541027 6.8860341316158262 2 55.987292201816999 2.5889121950124889 2 60.096175354282174 7.4567422466288811 2 62.975882811056046 14.166714717068901 2 68.012978434532201 1.4800000000000004 2 71.995710430094036 1.4800000000000004 2 77.679137434233709 12.792514782585689 2 75.606542268401569 1.4800000000000004 2 83.707149365114347 3.4491068104761804 2 85.863438572149406 15.617662380093428 2 95.018965693810642 10.829393414695218 2 96.493731263044893 3.7812958506086098 2 1.4800000000000004 11.602568953460583 2 5.3109646310893392 11.081437678412124 2 8.9363852564868385 4.5780739102223906 2 11.840633844836036 12.921822640368399 2 18.325835618962991 5.934155241675434 2 20.748228058693702 12.377273627882653 2 21.969710414464515 4.3307546457308908 2 29.662627190624175 13.485367117969973 2 30.317547916232019 4.0558453615253178 2 32.532961346853277 12.058161690383193 2 36.438713708744885 8.0954474472243287 2 42.755358662981486 12.910926011722978 2 45.300630885966733 11.763860631086882 2 50.167975131865333 5.1413271199794996 2 59.106648521672163 17.120603927120023 2 63.202068221762786 11.540162988391973 2 66.820836355456493 16.346792819440147 2 70.034886620263961 14.898546398530927 2 73.424604505511226 5.0758435379057625 2 73.980270611662164 16.92428510451991 2 74.9761505084861 14.353861732056442 2 79.973217696221354 1.4800000000000004 2 82.528831002594757 11.840021475634744 2 86.245865755003692 3.7417100523969635 2 94.280669458111404 1.9891699029239802 2 95.403227820240147 12.582376770313763 2 1.4800000000000004 4.4430853393742638 2 2.6012426961408823 4.1336313081609752 2 9.3167134816625339 14.850612309348936 2 15.986771052957648 1.4800000000000004 2 22.309988147624114 7.4250484874005558 2 27.805019880091386 2.5500249811911986 2 26.489113941853017 10.358623147158502 2 36.622161119020127 13.583229000696486 2 32.787203913780772 1.4800000000000004 2 38.843706803454019 2.2216524628680276 2 43.465808062203919 1.4800000000000004 2 42.988312344984401 5.4236957224231901 2 49.872159455455964 1 2 55.658005004924476 5.3048885011962978 2 60.160236113917406 3.0807502123534118 2 65.151140128129327 10.629715448814075 2 70.922870536309389 3.0337179851238814 2 81.604075632197862 16.506201039010097 2 80.842582334335617 4.0100733218498217 2 87.750548897239099 15.875731605181754 2 91.239131276377094 2.3386231596609512 2 97.397015424445243 1.7420272699018073 2 11.89344500712982 4.8192418387378169 2 32.089110417523564 8.9377983832763981 2 43.487509809707689 7.6131117684659309 2 75.853657010525509 8.2773525795813558 2 76.623218469922961 7.828473738661831 2 77.206404581448695 3.7568415182157389 2 23.998706789522593 2.4453514677985004 2 64.451311068987962 7.7400367689837637 2 67.466594432658354 9.1835815350792966 2 78.968844783614642 6.6229638027399993 2 12.464399386876295 4.1594674566592218 2 26.784855612869016 8.0865452957636741 2 62.979954746079763 5.1969457187479495 2 66.198427441330182 4.5434386848952588 2 10.237753172275516 7.3518351164757876 2 14.84407318296493 8.794482776708433 2 33.74655181917948 4.7889400321959021 2 61.978310104847495 6.4115275962080203 2 67.274261004328835 5.7570533051564095 2 68.698205989912196 4.8811815293668266 2 73.860640358012319 4.3887673114977011 2 77.529906150899023 11.195727861513488 2 2.018108064789554 8.8132001217983458 2 12.196534413742381 1 2 30.063491779954944 7.714979380737609 2 29.054123502145018 15.280246694873828 2 33.248524462387614 6.7535492202754837 2 45.558485421780304 8.6074116056085064 2 49.594397713320525 9.6411722804238504 2 56.781948705753393 10.391051052804503 2 68.29917578520579 16.825931171462912 2 70.89050856909526 7.937006313623078 2 84.6238496565378 6.4561992913995185 2 90.43174638219692 5.5841646668261751 2 96.298742352017371 9.2767644025290661 2 2.5290019999768711 2.1057464799178405 2 5.2601873882320209 1.9670787304486392 2 10.175677384585613 16.472411470272025 2 14.381978986990244 12.071627350640153 2 26.39042582565915 16.267240000448229 2 31.726844279577993 15.332718822928632 2 37.168027014249347 1 2 41.947346625880044 3.0540041319179161 2 55.376119469392137 1 2 60.044863225024265 4.0320491406406491 2 64.291048534156545 16.579259328636983 2 83.860253073948471 2.0210787572304811 2 82.532776099950922 15.051667260536318 2 92.656575187493175 7.7446765221669054 2 95.161640000372401 6.0303061703200918 2 1 15.304610705274646 2 6.0737249388648964 12.090741896422644 2 11.49964934869209 9.6521155105593195 2 21.084515126979014 10.3396170821028 2 28.397367606754887 5.0062081822176552 2 37.770340809256183 9.2128080661121743 2 45.050113881227091 16.820525472531227 2 76.737658637583579 15.682204033530107 2 81.861381886146617 13.49229929705138 2 84.704160636426991 2.1921424347648371 2 92.856035421580586 1 2 97.831169184971628 10.546560050155307 2 1 7.3426460984027946 2 16.792491550760186 2.3766905740197362 2 25.251873945594411 1 2 22.938670172440375 12.704866294244514 2 35.554494653060402 15.033657834209102 2 54.440887166690423 3.7450919943456893 2 78.114412108010299 16.233145762954596 2 85.757605450953903 13.751656388440471 2 92.417227859393819 5.2647570985456271 2 95.934592643554709 1 2 34.142683542606271 6.7629773126884531 2 41.359420459336697 13.017028637750656 2 48.233926900022666 11.211760754274989 2 57.284083964038508 11.303420903475011 2 73.074569192019823 18.228792672427993 2 80.461283926754803 8.4608133983750911 2 85.453952142108506 8.6555120222873807 2 14.057658935653732 14.478374490179437 2 16.40333556697826 14.266011514705557 2 18.56510262334367 1 2 26.890706040937637 17.885318186547501 2 35.581441930659018 16.700416091571093 2 39.48114941603896 4.9597929050682836 2 56.775361557147896 3.3046205423665236 2 61.621267183114888 8.0398208659710573 2 62.802206144939412 16.385338009528624 2 84.304179591570659 14.742435075625805 2 6.1321747602545571 10.229551214473602 2 12.556434785126132 13.972301075336693 2 19.493876277270303 13.582126570390253 2 30.719615008223084 4.7592762473939487 2 37.78823153817234 7.3985203544286646 2 44.134891576754896 13.395202679749362 2 46.359001276230273 11.19113764499199 2 57.67039196044616 15.774877920416278 2 62.745629787350339 12.265217594688826 2 66.969184955368505 18.115847524859984 2 74.762025951877703 15.744422656701383 2 83.551964325552831 11.144313718245964 2 86.949536264330263 2.8462101181252026 2 94.771912881406791 2.7243782178658251 2 95.07666114620379 14.005522868974381 2 9.3191173036084809 13.452557490902967 2 25.417970353593326 10.515076433831863 2 38.819263792803483 1 2 48.814447691214831 1.7917678697919488 2 56.077377062516511 6.1185319574607533 2 79.80491352155542 16.871066501199778 2 87.717863476633681 14.213052563428079 2 97.849368597076506 1 2 </DataArray>
</Points>
<Cells>
<DataArray Name="connectivity" format="ascii" type="Int32">0</DataArray>
<DataArray Name="offsets" format="ascii" type="Int32">0</DataArray>
<DataArray Name="types" format="ascii" type="UInt8">1</DataArray>
</Cells>
<PointData>
<DataArray Name="Points" NumberOfComponents="3" format="ascii" type="Float32">1 8.2290410778841636 2 4.9536896838487952 7.9262593196664248 2 7.4027166662841823 1.4800000000000004 2 12.816913523598719 1 2 12.482061723765071 7.7788155493972022 2 16.158960688022074 8.4704556464135532 2 19.806288738031132 7.5461102946734187 2 24.800151990169649 9.4797894131250455 2 29.372686060698666 8.0076604710865045 2 30.268165242396908 16.478947689922229 2 33.291842145135327 8.8205764942641789 2 34.894096742995423 6.9657195564245704 2 39.651088536269157 10.704128370535674 2 41.891238190265291 7.447095160119253 2 46.30603278431542 9.5084286659239279 2 48.535867320138358 9.2001357424671131 2 57.458154659670676 9.428187739628326 2 60.801861899907323 15.354939581976639 2 60.912416735501552 1.4800000000000004 2 64.909062290727775 1.4800000000000004 2 69.800265409041728 16.814423431656436 2 70.313024776204728 7.6088291562453652 2 73.940883451427069 7.8782269445806792 2 72.631177239942517 15.722319378289731 2 76.237051182457392 9.1808750608121841 2 77.574831853869554 3.2573254253847064 2 82.505996881874196 6.521511552919236 2 85.46135868853186 5.0500685814581452 2 90.102200826634956 6.5445228057281497 2 97.588643125750508 8.3223032682460403 2 2.5881660342721911 1 2 5.4014938835237896 1 2 8.199537103300619 7.1407184291911658 2 11.109508542134066 14.904622178489495 2 15.550338365771267 4.9867415100917194 2 13.642142975323875 12.919862747637149 2 18.600612823320137 2.4130252487297801 2 26.068930501137316 4.9237006846883142 2 26.454664377336979 14.822919821182705 2 32.552705028752072 16.603253876345004 2 28.326935557594929 1.4800000000000004 2 35.780385503592377 1 2 36.81962232399156 6.7905890446796455 2 40.393100998115571 3.598432749709878 2 46.595212023509902 1.4800000000000004 2 46.463279936527123 4.8966202928172544 2 56.198267617110702 1 2 59.340352774603986 5.4611668312436912 2 65.082781470192145 8.0209611088337649 2 66.230769961915215 10.318507024618677 2 64.119122537870638 14.935204914271992 2 68.193308398332391 2.2024483023791355 2 72.794752540476125 1.4800000000000004 2 79.860881884592672 13.706853375774713 2 76.220547999920171 1.4800000000000004 2 79.687120908126616 6.3898477083309455 2 83.780566999078744 1 2 83.21576379077122 13.501554766967562 2 93.557139384084934 7.9558870149789183 2 95.457759291395234 4.2662531162092652 2 1.8959313885519282 14.016042097993541 2 5.0611042288040453 13.277335171238168 2 7.0967919110563411 2.333706726678499 2 12.607089386618043 3.2480108451566729 2 11.32775315472583 10.528573293293594 2 19.051165622962095 6.6769217739439402 2 21.94413399702438 11.917264976507335 2 24.503412006375733 6.3089386816448982 2 27.636532152570894 7.8443175388536135 2 26.134686280576368 13.341530425743896 2 29.066117535537742 5.1499641282836057 2 35.410286814533784 11.04812879560377 2 39.157887568546776 8.4759653543956475 2 41.3220152258083 10.497241889328182 2 46.690994499101002 15.706454435498852 2 49.067644030976197 6.1911008069186515 2 58.501062893447916 13.616732824382108 2 60.254513614957126 9.9793020078792125 2 63.097264908942741 5.8880300317045196 2 66.231139670122644 3.870612717646071 2 68.502852528717085 12.662067688691968 2 70.298099886710304 10.977576812457984 2 72.826742280159593 5.5754715328233599 2 76.39988407961404 14.031189043226615 2 73.564907266441665 11.321213957464277 2 80.636410000191745 1.4800000000000004 2 81.318343564041669 12.293467688113052 2 85.476884632920118 1 2 92.875750594764341 1.865518379605922 2 96.711403246127631 10.746623986129981 2 1 6.496920383678944 2 5.2228798689166425 5.030297452150565 2 9.1965778169419785 7.0418208651710756 2 9.2302814151479069 11.89801032375491 2 16.678256494773731 1 2 13.790777281508047 9.2740397818802691 2 21.257362746092326 4.1774494724793163 2 24.587696484004553 1 2 24.531353632361473 12.951293482330367 2 37.357343823547779 15.463443705035374 2 32.016257471025263 1.4800000000000004 2 34.140870923507869 3.4426939666168392 2 36.87626051922777 3.3793610353667054 2 41.003384796376224 2.3703147807607077 2 45.731413761352655 4.5031910880100705 2 47.535817384226043 2.1948096453057762 2 54.618996494114754 4.7842011809990943 2 57.773377283498895 1.4800000000000004 2 61.076878396783364 7.0690403830980371 2 67.598860796359006 6.4503378396489675 2 65.726718570497994 14.203159253750675 2 69.362354189480556 4.7150916048254743 2 71.566111400529564 2.5269198402064572 2 78.122953743839517 17.914426844429961 2 75.81546453116222 5.8368601266828604 2 79.955159274327514 9.5024257574198039 2 83.374040409629714 4.6327074419899787 2 86.31170797661639 11.751541964045009 2 93.48776801300896 4.7760192970214623 2 95.164014567324941 1 2 2.7140363720148026 12.268274204081793 2 4.2497058020800775 8.7616445111904646 2 10.529018853806269 2.155402406757053 2 10.974902825970565 1.4800000000000004 2 17.364158860749566 11.468679743210652 2 19.291850169748269 9.9669337325287586 2 25.338327004249024 5.6063233046592735 2 29.269818866744995 11.373429733631461 2 31.199355558745268 12.729345308986007 2 32.525477280266266 6.4009947485377712 2 40.111472382279096 13.536332446079852 2 44.198332253705608 10.490298691955635 2 49.574240666418852 10.87029413533285 2 57.423311312169005 12.377241487824147 2 59.942128095224717 12.563564529481409 2 61.624128440555999 1.4800000000000004 2 64.204602579788244 1.4800000000000004 2 71.446204484203463 17.480380419349171 2 70.073390270417704 10.069914889400561 2 71.887708955548334 13.219651737023234 2 81.455144905726002 8.4177222927100761 2 85.332036203964307 7.053606076129177 2 91.411490057402588 4.9119613966180937 2 96.623438716422868 6.1533488460087353 2 1.6637215645555712 1.4800000000000004 2 4.4395956585806662 2.4332136570866711 2 8.1347641237812844 9.239088710323422 2 13.87363483793729 16.193866307256656 2 15.692442836717381 4.2785140281879501 2 16.427230952509106 12.991116146896928 2 19.451938978214727 1 2 24.780042169144586 17.217367307475087 2 33.989594974574139 15.272068220811731 2 27.542156140781131 1.4800000000000004 2 33.852244302768298 2.4372536142604289 2 36.284264094084129 4.0260162399709349 2 40.154359098684623 5.6681023297515107 2 43.245559644022094 2.4233932367931441 2 48.084124894541027 6.8860341316158262 2 55.987292201816999 2.5889121950124889 2 60.096175354282174 7.4567422466288811 2 62.975882811056046 14.166714717068901 2 68.012978434532201 1.4800000000000004 2 71.995710430094036 1.4800000000000004 2 77.679137434233709 12.792514782585689 2 75.606542268401569 1.4800000000000004 2 83.707149365114347 3.4491068104761804 2 85.863438572149406 15.617662380093428 2 95.018965693810642 10.829393414695218 2 96.493731263044893 3.7812958506086098 2 1.4800000000000004 11.602568953460583 2 5.3109646310893392 11.081437678412124 2 8.9363852564868385 4.5780739102223906 2 11.840633844836036 12.921822640368399 2 18.325835618962991 5.934155241675434 2 20.748228058693702 12.377273627882653 2 21.969710414464515 4.3307546457308908 2 29.662627190624175 13.485367117969973 2 30.317547916232019 4.0558453615253178 2 32.532961346853277 12.058161690383193 2 36.438713708744885 8.0954474472243287 2 42.755358662981486 12.910926011722978 2 45.300630885966733 11.763860631086882 2 50.167975131865333 5.1413271199794996 2 59.106648521672163 17.120603927120023 2 63.202068221762786 11.540162988391973 2 66.820836355456493 16.346792819440147 2 70.034886620263961 14.898546398530927 2 73.424604505511226 5.0758435379057625 2 73.980270611662164 16.92428510451991 2 74.9761505084861 14.353861732056442 2 79.973217696221354 1.4800000000000004 2 82.528831002594757 11.840021475634744 2 86.245865755003692 3.7417100523969635 2 94.280669458111404 1.9891699029239802 2 95.403227820240147 12.582376770313763 2 1.4800000000000004 4.4430853393742638 2 2.6012426961408823 4.1336313081609752 2 9.3167134816625339 14.850612309348936 2 15.986771052957648 1.4800000000000004 2 22.309988147624114 7.4250484874005558 2 27.805019880091386 2.5500249811911986 2 26.489113941853017 10.358623147158502 2 36.622161119020127 13.583229000696486 2 32.787203913780772 1.4800000000000004 2 38.843706803454019 2.2216524628680276 2 43.465808062203919 1.4800000000000004 2 42.988312344984401 5.4236957224231901 2 49.872159455455964 1 2 55.658005004924476 5.3048885011962978 2 60.160236113917406 3.0807502123534118 2 65.151140128129327 10.629715448814075 2 70.922870536309389 3.0337179851238814 2 81.604075632197862 16.506201039010097 2 80.842582334335617 4.0100733218498217 2 87.750548897239099 15.875731605181754 2 91.239131276377094 2.3386231596609512 2 97.397015424445243 1.7420272699018073 2 11.89344500712982 4.8192418387378169 2 32.089110417523564 8.9377983832763981 2 43.487509809707689 7.6131117684659309 2 75.853657010525509 8.2773525795813558 2 76.623218469922961 7.828473738661831 2 77.206404581448695 3.7568415182157389 2 23.998706789522593 2.4453514677985004 2 64.451311068987962 7.7400367689837637 2 67.466594432658354 9.1835815350792966 2 78.968844783614642 6.6229638027399993 2 12.464399386876295 4.1594674566592218 2 26.784855612869016 8.0865452957636741 2 62.979954746079763 5.1969457187479495 2 66.198427441330182 4.5434386848952588 2 10.237753172275516 7.3518351164757876 2 14.84407318296493 8.794482776708433 2 33.74655181917948 4.7889400321959021 2 61.978310104847495 6.4115275962080203 2 67.274261004328835 5.7570533051564095 2 68.698205989912196 4.8811815293668266 2 73.860640358012319 4.3887673114977011 2 77.529906150899023 11.195727861513488 2 2.018108064789554 8.8132001217983458 2 12.196534413742381 1 2 30.063491779954944 7.714979380737609 2 29.054123502145018 15.280246694873828 2 33.248524462387614 6.7535492202754837 2 45.558485421780304 8.6074116056085064 2 49.594397713320525 9.6411722804238504 2 56.781948705753393 10.391051052804503 2 68.29917578520579 16.825931171462912 2 70.89050856909526 7.937006313623078 2 84.6238496565378 6.4561992913995185 2 90.43174638219692 5.5841646668261751 2 96.298742352017371 9.2767644025290661 2 2.5290019999768711 2.1057464799178405 2 5.2601873882320209 1.9670787304486392 2 10.175677384585613 16.472411470272025 2 14.381978986990244 12.071627350640153 2 26.39042582565915 16.267240000448229 2 31.726844279577993 15.332718822928632 2 37.168027014249347 1 2 41.947346625880044 3.0540041319179161 2 55.376119469392137 1 2 60.044863225024265 4.0320491406406491 2 64.291048534156545 16.579259328636983 2 83.860253073948471 2.0210787572304811 2 82.532776099950922 15.051667260536318 2 92.656575187493175 7.7446765221669054 2 95.161640000372401 6.0303061703200918 2 1 15.304610705274646 2 6.0737249388648964 12.090741896422644 2 11.49964934869209 9.6521155105593195 2 21.084515126979014 10.3396170821028 2 28.397367606754887 5.0062081822176552 2 37.770340809256183 9.2128080661121743 2 45.050113881227091 16.820525472531227 2 76.737658637583579 15.682204033530107 2 81.861381886146617 13.49229929705138 2 84.704160636426991 2.1921424347648371 2 92.856035421580586 1 2 97.831169184971628 10.546560050155307 2 1 7.3426460984027946 2 16.792491550760186 2.3766905740197362 2 25.251873945594411 1 2 22.938670172440375 12.704866294244514 2 35.554494653060402 15.033657834209102 2 54.440887166690423 3.7450919943456893 2 78.114412108010299 16.233145762954596 2 85.757605450953903 13.751656388440471 2 92.417227859393819 5.2647570985456271 2 95.934592643554709 1 2 34.142683542606271 6.7629773126884531 2 41.359420459336697 13.017028637750656 2 48.233926900022666 11.211760754274989 2 57.284083964038508 11.303420903475011 2 73.074569192019823 18.228792672427993 2 80.461283926754803 8.4608133983750911 2 85.453952142108506 8.6555120222873807 2 14.057658935653732 14.478374490179437 2 16.40333556697826 14.266011514705557 2 18.56510262334367 1 2 26.890706040937637 17.885318186547501 2 35.581441930659018 16.700416091571093 2 39.48114941603896 4.9597929050682836 2 56.775361557147896 3.3046205423665236 2 61.621267183114888 8.0398208659710573 2 62.802206144939412 16.385338009528624 2 84.304179591570659 14.742435075625805 2 6.1321747602545571 10.229551214473602 2 12.556434785126132 13.972301075336693 2 19.493876277270303 13.582126570390253 2 30.719615008223084 4.7592762473939487 2 37.78823153817234 7.3985203544286646 2 44.134891576754896 13.395202679749362 2 46.359001276230273 11.19113764499199 2 57.67039196044616 15.774877920416278 2 62.745629787350339 12.265217594688826 2 66.969184955368505 18.115847524859984 2 74.762025951877703 15.744422656701383 2 83.551964325552831 11.144313718245964 2 86.949536264330263 2.8462101181252026 2 94.771912881406791 2.7243782178658251 2 95.07666114620379 14.005522868974381 2 9.3191173036084809 13.452557490902967 2 25.417970353593326 10.515076433831863 2 38.819263792803483 1 2 48.814447691214831 1.7917678697919488 2 56.077377062516511 6.1185319574607533 2 79.80491352155542 16.871066501199778 2 87.717863476633681 14.213052563428079 2 97.849368597076506 1 2 </DataArray>