<?xml version="1.0" ?>
<VTKFile byte_order="LittleEndian" type="UnstructuredGrid" version="0.1">
<UnstructuredGrid>
<Piece NumberOfCells="0" NumberOfPoints="60">
<Points>
<DataArray NumberOfComponents="3" format="ascii" type="Float32">1.5999999999999999 4.6886127620523732 2 6.7867277644247341 4.3700309979291179 2 10.450583778658396 1.5999999999999999 2 12.747301427362352 1.5999999999999999 2 12.430938659296775 4.4515624261554905 2 16.411281504233251 4.3967684483549068 2 20.3229070884327 4.3686108391219332 2 25.825722358425296 4.3978557074172793 2 28.460455315412776 4.458421637357497 2 30.07935306450478 7.0329917638700392 2 31.023347743089104 4.1674730753427482 2 33.646930804692396 4.5068650886878983 2 38.853526802615576 4.4963324728869392 2 41.549111929314996 4.5187263024064519 2 44.13909072849691 4.6761415663394565 2 49.220452605869866 4.4584124684118223 2 57.585353627477602 6.3032846553442852 2 62.187449355668811 5.167676878383781 2 64.478732816264184 1.5999999999999999 2 66.739435142960872 1.5999999999999999 2 69.44701141354264 7.417241452155416 2 70.576931745472308 4.8370220988049617 2 73.735431012240014 3.7626713958301958 2 73.480054384105458 7.7437094358989276 2 75.60417459989597 5.3784261069978125 2 77.194274930617809 1.5999999999999999 2 80.287596513677556 5.1851048883594322 2 83.857935198181565 1.5999999999999999 2 92.363059748434495 1.5999999999999999 2 96.080416037511327 4.4694062390691789 2 1.5999999999999999 1.5999999999999999 2 5.8364374967177746 1.5999999999999999 2 9.5454112614572217 4.4254146175822342 2 10.998264831442309 7.1081848245179655 2 15.054454244893211 1.5999999999999999 2 14.394804915127514 6.7302474581313634 2 19.679676298235229 1.5999999999999999 2 26.942796231388161 1.5999999999999999 2 26.970773383770307 7.2033231619512819 2 33.222074047890445 7.6956627917408893 2 30.108261187466336 1.5999999999999999 2 32.490719766395152 1.5999999999999999 2 36.96851707771831 1.5999999999999999 2 41.274293146741215 1.5999999999999999 2 43.443281184141085 1.5999999999999999 2 47.900263700807542 1.5999999999999999 2 57.653453139499838 1.5999999999999999 2 62.260824023773687 1.5999999999999999 2 64.825886196718315 4.3961773156163186 2 68.077804239105902 4.3408931080205768 2 66.41104600113843 6.9076070953528301 2 69.525143656777686 1.5999999999999999 2 71.994862181491797 1.5999999999999999 2 76.755256135905611 7.8140575934215342 2 74.935556462221072 1.5999999999999999 2 77.867197932767738 4.1397479106534369 2 79.460798828197127 1.5999999999999999 2 84.650062345602961 6.6186543956837891 2 93.711397519048305 4.4659561321113541 2 96.458783925817556 1.5999999999999999 2 </DataArray>
</Points>
<Cells>
<DataArray Name="connectivity" format="ascii" type="Int32">0</DataArray>
<DataArray Name="offsets" format="ascii" type="Int32">0</DataArray>
<DataArray Name="types" format="ascii" type="UInt8">1</DataArray>
</Cells>
<PointData>
<DataArray Name="Points" NumberOfComponents="3" format="ascii" type="Float32">1.5999999999999999 4.6886127620523732 2 6.7867277644247341 4.3700309979291179 2 10.450583778658396 1.5999999999999999 2 12.747301427362352 1.5999999999999999 2 12.430938659296775 4.4515624261554905 2 16.411281504233251 4.3967684483549068 2 20.3229070884327 4.3686108391219332 2 25.825722358425296 4.3978557074172793 2 28.460455315412776 4.458421637357497 2 30.07935306450478 7.0329917638700392 2 31.023347743089104 4.1674730753427482 2 33.646930804692396 4.5068650886878983 2 38.853526802615576 4.4963324728869392 2 41.549111929314996 4.5187263024064519 2 44.13909072849691 4.6761415663394565 2 49.220452605869866 4.4584124684118223 2 57.585353627477602 6.3032846553442852 2 62.187449355668811 5.167676878383781 2 64.478732816264184 1.5999999999999999 2 66.739435142960872 1.5999999999999999 2 69.44701141354264 7.417241452155416 2 70.576931745472308 4.8370220988049617 2 73.735431012240014 3.7626713958301958 2 73.480054384105458 7.7437094358989276 2 75.60417459989597 5.3784261069978125 2 77.194274930617809 1.5999999999999999 2 80.287596513677556 5.1851048883594322 2 83.857935198181565 1.5999999999999999 2 92.363059748434495 1.5999999999999999 2 96.080416037511327 4.4694062390691789 2 1.5999999999999999 1.5999999999999999 2 5.8364374967177746 1.5999999999999999 2 9.5454112614572217 4.4254146175822342 2 10.998264831442309 7.1081848245179655 2 15.054454244893211 1.5999999999999999 2 14.394804915127514 6.7302474581313634 2 19.679676298235229 1.5999999999999999 2 26.942796231388161 1.5999999999999999 2 26.970773383770307 7.2033231619512819 2 33.222074047890445 7.6956627917408893 2 30.108261187466336 1.5999999999999999 2 32.490719766395152 1.5999999999999999 2 36.96851707771831 1.5999999999999999 2 41.274293146741215 1.5999999999999999 2 43.443281184141085 1.5999999999999999 2 47.900263700807542 1.5999999999999999 2 57.653453139499838 1.5999999999999999 2 62.260824023773687 1.5999999999999999 2 64.825886196718315 4.3961773156163186 2 68.077804239105902 4.3408931080205768 2 66.41104600113843 6.9076070953528301 2 69.525143656777686 1.5999999999999999 2 71.994862181491797 1.5999999999999999 2 76.755256135905611 7.8140575934215342 2 74.935556462221072 1.5999999999999999 2 77.867197932767738 4.1397479106534369 2 79.460798828197127 1.5999999999999999 2 84.650062345602961 6.6186543956837891 2 93.711397519048305 4.4659561321113541 2 96.458783925817556 1.5999999999999999 2 </DataArray>
<DataArray Name="forces" NumberOfComponents="3" format="ascii" type="Float32">-0.61512177784589073 0.088541795020492642 0.0 0.092006447058166019 0.09941020479285026 0.0 0.043487622266991918 -0.22611161245398925 0.0 0.0384716531070326 -0.25615442099590857 0.0 0.034475677747305283 0.14127626236213708 0.0 0.022638984302269516 0.13643558028740557 0.0 -0.13021336522149091 0.16450107477489639 0.0 -0.034910031980993586 0.098753855007505359 0.0 -0.02638935039855211 0.25703349570569373 0.0 0.021166558378101469 0.20553597664940268 0.0 -0.029716692700366476 0.11975705195548472 0.0 -0.024550342156349297 0.07995342140603523 0.0 0.010779171099042379 0.14410382479115877 0.0 -0.028582287499928503 0.14226117491453835 0.0 -0.029131119954817764 0.11039286282400743 0.0 0.015639803329181905 0.10374928965594628 0.0 0.11471460135698394 0.51254826893434724 0.0 -0.067132835536096558 0.25344992715826725 0.0 -0.0047503506375584578 -0.38729198554863553 0.0 0.0071375090726023063 -0.073962399239004883 0.0 -0.00040281244534845495 0.30041769669031521 0.0 -0.042205708276496778 0.23573816484282428 0.0 0.030793304598446647 0.16400919492275895 0.0 0.042430937983878175 0.25744513849362316 0.0 0.05546251677735671 0.29326641448835805 0.0 -0.05918276360914794 -0.57367190136526092 0.0 0.10261858825808863 0.29955812978702123 0.0 -0.019283868956788464 -0.32106048805080445 0.0 -0.021892401953370833 -0.031934823280306661 0.0 -0.021248164166927097 0.1056227830356935 0.0 -1.1029679115942295 -0.1132643789938288 0.0 0.066284962203694286 -0.25991524192877158 0.0 0.082470580628701384 0.135918925456748 0.0 0.050843126511732388 0.22836879464419516 0.0 0.038769438776554747 -0.20733714876465911 0.0 -0.0055957599581325651 0.174716601998232 0.0 0.019097124696446754 -0.35283940108229783 0.0 -0.0032995584179525972 -0.1744692327304502 0.0 -0.023727017055146724 0.1672239492389726 0.0 0.083965053925328728 0.12202185455425098 0.0 -0.052368559934933889 -0.38040070861805964 0.0 -0.052999579672933228 -0.21263697801026038 0.0 -0.028772607931834671 0.0 0.0 0.012559112279468376 -0.27292642984179716 0.0 0.025465104284938089 -0.047490297496816554 0.0 0.048196420265411266 -0.04823165095602721 0.0 -0.044939105901673937 -0.66496521568233691 0.0 -0.023681045522280897 0.0 0.0 0.0058211513580410656 0.16407387489462777 0.0 -0.064817743588490406 0.12569625740750548 0.0 -0.026223409084748822 0.23188642720286315 0.0 -0.0039708391578519853 0.045488266296746516 0.0 0.010765267598045672 -0.60120656176393361 0.0 0.11172570045075253 0.3578777342096563 0.0 -0.0068940432035354549 -0.50903442927822573 0.0 0.04638364672484048 0.11591993698908762 0.0 -0.044275809674702585 -0.10307211298467024 0.0 -0.01326602277269498 0.51743998380566525 0.0 -0.043527278119185643 0.11126942495087541 0.0 -0.021659887459674287 -0.30629728142082741 0.0 </DataArray>
<DataArray Name="radii" format="ascii" type="Float32">1.5999999999999999 1.5999999999999999 1.5999999999999999 1.5999999999999999 1.52 1.5999999999999999 1.5999999999999999 1.5999999999999999 1.5199999999999998 1.5999999999999999 1.52 1.5999999999999999 1.5999999999999999 1.5999999999999999 1.5999999999999999 1.5999999999999999 1.5999999999999999 1.5999999999999999 1.5999999999999999 1.5999999999999999 1.5999999999999999 1.52 1.52 1.5999999999999999 1.44 1.5999999999999999 1.5999999999999999 1.5999999999999999 1.5999999999999999 1.5999999999999999 1.5999999999999999 1.5999999999999999 1.5999999999999999 1.5999999999999999 1.5999999999999999 1.5999999999999999 1.5999999999999999 1.5999999999999999 1.5999999999999999 1.5999999999999999 1.5999999999999999 1.5999999999999999 1.5999999999999999 1.5999999999999999 1.5999999999999999 1.5999999999999999 1.5999999999999999 1.5999999999999999 1.5999999999999999 1.52 1.5999999999999999 1.5999999999999999 1.5999999999999999 1.5999999999999999 1.5999999999999999 1.52 1.5999999999999999 1.5999999999999999 1.5999999999999999 1.5999999999999999 </DataArray>
</PointData>
<CellData/>
</Piece>
</UnstructuredGrid>
</VTKFile>
