<?xml version="1.0" ?>
<VTKFile byte_order="LittleEndian" type="UnstructuredGrid" version="0.1">
<UnstructuredGrid>
<Piece NumberOfCells="0" NumberOfPoints="19">
<Points>
<DataArray NumberOfComponents="3" format="ascii" type="Float32">3.4479934693071961 1.4 2 7.5524138965581447 1.4 2 17.826344340818274 1.4 2 21.90028216699822 1.4 2 23.926962106263343 1.4 2 35.992914764900512 1.4 2 39.997292208643714 1.4 2 45.999507095723672 1.4 2 50.0 1.4 2 52.00021268229731 1.4 2 54.000492904276328 1.4 2 56.000921858746281 1.4 2 60.002707791356293 1.4 2 82.173655659181733 1.4 2 86.27442058282071 1.4 2 88.331689840194684 1.4 2 90.390304009381936 1.4 2 94.501625268155905 1.4 2 98.6 1.4 2 </DataArray>
</Points>
<Cells>
<DataArray Name="connectivity" format="ascii" type="Int32">0</DataArray>
<DataArray Name="offsets" format="ascii" type="Int32">0</DataArray>
<DataArray Name="types" format="ascii" type="UInt8">1</DataArray>
</Cells>
<PointData>
<DataArray Name="Points" NumberOfComponents="3" format="ascii" type="Float32">3.4479934693071961 1.4 2 7.5524138965581447 1.4 2 17.826344340818274 1.4 2 21.90028216699822 1.4 2 23.926962106263343 1.4 2 35.992914764900512 1.4 2 39.997292208643714 1.4 2 45.999507095723672 1.4 2 50.0 1.4 2 52.00021268229731 1.4 2 54.000492904276328 1.4 2 56.000921858746281 1.4 2 60.002707791356293 1.4 2 82.173655659181733 1.4 2 86.27442058282071 1.4 2 88.331689840194684 1.4 2 90.390304009381936 1.4 2 94.501625268155905 1.4 2 98.6 1.4 2 </DataArray>
<DataArray Name="forces" NumberOfComponents="3" format="ascii" type="Float32">0.0025469777513795755 0.0 0.0 0.0034518347620648981 0.0 0.0 -0.0070251929823523795 0.0 0.0 -0.0067748123038136043 0.0 0.0 -0.0059933152306896886 0.0 0.0 -0.0013062014532536637 0.0 0.0 -0.00061677634982260088 0.0 0.0 -0.00014501348611162257 0.0 0.0 0.0 0.0 0.0 6.5741146123343697e-05 0.0 0.0 0.00014501348610451714 0.0 0.0 0.00025226557549729023 0.0 0.0 0.00061677634981549545 0.0 0.0 0.007025192982339945 0.0 0.0 0.0040436324347581376 0.0 0.0 0.0013597272827041706 0.0 0.0 -0.0014356413230416365 0.0 0.0 -0.0038963386029422509 0.0 0.0 0.75234506919801714 0.0 0.0 </DataArray>
<DataArray Name="radii" format="ascii" type="Float32">1.4 1.4 1.4 1.4 1.4 1.4 1.4 1.4 1.4 1.4 1.4 1.4 1.4 1.4 1.4 1.4 1.4 1.4 1.4 </DataArray>
</PointData>
<CellData/>
</Piece>
</UnstructuredGrid>
</VTKFile>
