<?xml version="1.0" ?>
<VTKFile byte_order="LittleEndian" type="UnstructuredGrid" version="0.1">
<UnstructuredGrid>
<Piece NumberOfCells="0" NumberOfPoints="240">
<Points>
<DataArray NumberOfComponents="3" format="ascii" type="Float32">1.4 7.5045400715481447 2 6.0347286461337823 7.0315343666454533 2 8.6950865246318561 1.2400000000000002 2 12.289535963647415 1.3199999999999998 2 12.523123739662612 6.8077095426037157 2 16.269181327458437 7.5459637041324719 2 19.908660832783276 6.7818888542842357 2 25.122318867674796 7.8876147692009795 2 29.517992538533289 7.7557066398818471 2 29.863469902611129 14.488915028967106 2 33.348673938771157 8.0779780240764847 2 33.962868289371272 6.7279561471425637 2 39.904879972324728 9.7799297820838174 2 42.056907279907335 6.9397843817990843 2 45.540003426283121 8.2341582574930481 2 48.721189218228716 8.2144805898350466 2 57.8982813724556 9.2325753001825444 2 61.140901056164537 13.106558930587276 2 61.372850530772304 1.2400000000000002 2 65.669878405611399 1.2400000000000002 2 69.248336103951061 15.528482538931248 2 70.270153361354645 7.3637865718236091 2 74.14910240851863 7.2671803507431241 2 72.160492605576238 13.824608954885345 2 75.81875972651109 8.6663421757266246 2 77.443385302516461 2.6867757288482403 2 81.240911700796133 6.0105058591968099 2 84.586631839000219 4.9613303896535124 2 90.240895598637664 6.0341286316076195 2 96.864237744739285 8.1171774378578032 2 2.4654786677685445 1.3199999999999998 2 5.48552568990692 1.3199999999999998 2 8.2109317976642107 6.3380177351365043 2 10.872469663149273 14.279633642109733 2 15.008386900334235 4.5481099745074749 2 14.433835828436123 11.874623378002122 2 19.562644998861149 2.4171149165417458 2 25.976924207510692 4.201652806592703 2 26.524107256920558 13.792801325057571 2 32.28942868821661 14.592077764959166 2 29.221014696577857 1.2400000000000002 2 35.123070364702414 1.32 2 37.362006888792806 5.1313856810552636 2 40.951914548069681 2.733527173811285 2 45.235030688828644 2.0228753428738506 2 47.152639941701146 4.4732463438586292 2 56.74448303843603 1.4 2 60.47938053837985 5.1313323426855959 2 66.271569796194584 7.2242892010852895 2 66.998067229586354 9.5689824981426543 2 64.640852147494783 14.085299033675842 2 68.618770069564889 2.1965580060813585 2 72.632133097893146 1.6587906668097849 2 78.779703976991016 13.370375964699925 2 76.288569736306556 1.2400000000000002 2 79.114122891316683 5.5694419626224345 2 82.851215415922184 1.32 2 82.921837783882822 13.588854409107359 2 93.44552843581566 7.8427810005182259 2 96.463244823125365 4.5488967229448978 2 1.4 13.181876782189159 2 5.3879087385163951 12.145890810715761 2 7.8381239496692041 2.1702781504988393 2 12.698555829350584 3.2244355714526582 2 11.610314057677016 9.3044052902708003 2 18.831693188300729 6.4212363261720569 2 21.636524135804976 10.254666389876743 2 24.307432737910716 5.5176906256515545 2 27.968403898761895 7.4230431702659905 2 27.210549342537103 11.930773761152135 2 29.460723641980376 4.7409998525209636 2 34.433901407718466 10.168726706532699 2 38.98671653892653 7.6617783597254139 2 41.435230785305087 9.3220380199526378 2 45.495706207902202 14.492056519177973 2 49.414374943652838 5.9072735187830263 2 59.194193490385608 12.875248485747653 2 61.118516286222402 9.5628489645730852 2 64.191098854886818 5.3544273238685687 2 66.330203214438626 3.3967144145924046 2 68.063854364452055 11.771452145271365 2 70.184385317111293 10.29369037003095 2 72.931070662115772 5.4625498192077035 2 75.962854559871928 13.771456741713882 2 73.436840294357495 10.598101897255914 2 79.929943702530267 2.1542799983223198 2 81.069079186455454 12.39814215664753 2 85.185189366848263 1.4 2 92.061681043413657 1.4 2 96.899713386749454 9.8705574626417025 2 1.3199999999999998 6.0723659743088856 2 5.0775262102499354 5.1249795228944777 2 9.835292228652543 6.6375019100158426 2 9.4342439422672477 10.660933530834818 2 16.165479623695802 1.4 2 13.80511718160477 8.8648721983759255 2 20.947377705339143 3.8722485821514305 2 25.31823656412584 1.4 2 24.789570971616627 11.570362866034428 2 36.636093725132895 13.583764321231962 2 31.453219301550508 1.2400000000000002 2 33.515837120067317 3.1372996721658239 2 37.380217812211001 3.0203019483401023 2 42.222002599209951 2.1895163741304158 2 45.157776699313835 4.4748322558260423 2 48.166842146461697 2.3389458097760283 2 54.773362607593242 4.0865445800360272 2 59.14828759585609 1.2400000000000002 2 62.106050324140824 6.7278086348946049 2 67.629308108632316 5.7665417367402725 2 66.286817633765509 12.127848503255217 2 69.207305506352412 4.3839960288125237 2 70.543880023357929 1.2400000000000002 2 78.039982042809314 15.665416575469719 2 75.659030547920921 5.3432096861573992 2 78.696528653497523 8.8055041211816221 2 81.927383681620569 4.2135377309909163 2 86.096533032919751 11.349714279699898 2 93.264080493487853 4.9067618909294408 2 95.425542040369976 1.3199999999999998 2 2.6788358859360177 10.972050779484455 2 4.4222781474860913 7.9804731057290459 2 10.204598056946628 2.4093909911937561 2 11.255030605573008 1.2400000000000002 2 16.686303554309657 9.8058773582678533 2 18.804086637397042 8.450624595404598 2 25.931368132103149 5.2139434778314655 2 29.772784582488129 10.079788187323043 2 31.119379398222073 11.132460004580166 2 32.536422899067524 6.22823718514669 2 40.250015886216161 11.778811570845532 2 43.675086390987325 8.5766427528522264 2 49.040375128951155 10.490314533003307 2 57.753310522419376 11.235917434930593 2 60.528357941038315 11.324927556029031 2 63.062112919127621 1.2400000000000002 2 64.809694498233725 1.7853485802947096 2 71.506748284779718 16.001928178045883 2 69.691853647942082 8.6812717951979668 2 72.630734417444657 11.658171822054006 2 80.576940308943506 7.7029624847561786 2 84.626306395791985 6.7587373090908711 2 91.779160597132702 4.8709883222738561 2 96.535713374284398 6.2850628453050765 2 1.2400000000000002 1.3158078965552131 2 4.5117448910271962 1.9037585339279035 2 8.0958398394468638 8.6292040681504023 2 13.734355324399266 13.89117524856483 2 15.485742201683017 3.6523167014504203 2 16.508488163040333 12.630561651532837 2 19.092824631791352 1.3199999999999998 2 25.121864709713631 15.887967544198297 2 34.537999941481544 13.746911933924096 2 28.347820240600104 1.2400000000000002 2 32.915197081198627 2.3394845657740397 2 35.73558666764086 3.738185503376815 2 40.439129515692855 5.2394448530023672 2 43.079643959649331 3.0246492056416892 2 47.788594861504308 5.5326431084987622 2 56.551822484406109 2.6749275823715855 2 61.070765136446845 6.8332811186326383 2 63.039639424807724 13.119112088205013 2 68.145398105799529 1.2400000000000002 2 71.677604400060432 1.2400000000000002 2 77.239309402142496 11.83392061869978 2 75.28389457263529 2.0408999748870609 2 83.493545486004138 3.0608439241851539 2 85.222529600911358 13.812314470378416 2 95.258147784223553 9.5170296801207126 2 96.841826628364117 3.5439811988688956 2 1.2400000000000002 10.856199077594994 2 5.9776500723002499 9.8397880207299906 2 9.2981161885967882 4.4647320148837331 2 12.258829951889247 12.09772284048309 2 17.816047533811197 5.7308461181422086 2 20.254025313147014 11.88548743244991 2 22.767411998068535 3.9115555931294494 2 29.699212561629299 12.23939562350364 2 30.561525821178602 4.0696926100130186 2 32.740807769613866 11.067160852945509 2 37.138381052733038 6.7382984384804212 2 42.523001412033516 12.044426446411569 2 45.147546352019155 10.47870055560786 2 49.644431221281543 4.7059744229507707 2 58.513897734311932 15.330861219923653 2 63.359961638426114 11.142553481308475 2 67.045376973958412 15.294711211141506 2 70.226484399900485 13.414587450582031 2 73.140816113472042 4.3660669003897947 2 74.033216014024873 15.12384247531404 2 74.654102698539333 12.577446444812255 2 79.524503373312754 1.2400000000000002 2 82.293183940037451 10.89439906472108 2 85.749950767312271 3.00210513288825 2 94.056337944133517 2.4727630510663676 2 95.119066663837657 11.669359715299532 2 1.2400000000000002 3.8766535236730055 2 3.5282279426468 3.5835898644049884 2 8.7995491413150759 12.802290238986847 2 15.085294582931088 1.2400000000000002 2 21.494127436452732 5.9577854309644627 2 27.565964940305204 2.4643180405271021 2 25.998392158325832 9.6388633255772689 2 35.599977720022991 11.753370419860866 2 32.348048840247081 1.2400000000000002 2 38.630563955266467 1.4 2 43.494241962450715 1.2400000000000002 2 42.936571185372244 5.3913749533810575 2 49.410034091188983 1.4 2 56.095936726551301 5.129840862437649 2 60.53564592035044 2.7868053061912494 2 65.400572813954398 9.6764427673299718 2 70.906842231572497 2.7984741235672521 2 80.594583388638227 14.749559188043037 2 79.764736405027321 4.0250869361706609 2 87.494742115967213 13.653642526153938 2 91.351868173246459 2.6996659641897165 2 97.309690030076808 1.3199999999999998 2 11.80824770870408 4.9089719237557929 2 31.555691608059206 8.394198190647403 2 43.453027685725445 7.4664510929915009 2 75.469937081674956 7.526932447616983 2 76.901188517023073 7.3669605009734882 2 77.278124674145204 3.585906034171674 2 24.307215275169987 3.0240996955124029 2 64.648649438885371 7.0497646825146543 2 67.548881008686777 8.2370916702553387 2 78.293136477996953 5.9232854753436071 2 12.703606708026795 4.4982531234844805 2 26.43860266974875 7.0144260753080214 2 63.64017227385412 4.3438563709213431 2 65.68275146435235 3.9548239901806195 2 10.778749756851441 6.4691003442330022 2 14.827984044970426 8.1993418801148508 2 33.896318925023571 4.430510957439787 2 62.880458424144472 5.1984754668963227 2 66.836872844512513 5.488163528391639 2 68.426424635884999 4.0850309213252487 2 74.276366012099771 3.8532322629672802 2 77.727892664629564 9.3694896630071387 2 </DataArray>
</Points>
<Cells>
<DataArray Name="connectivity" format="ascii" type="Int32">0</DataArray>
<DataArray Name="offsets" format="ascii" type="Int32">0</DataArray>
<DataArray Name="types" format="ascii" type="UInt8">1</DataArray>
</Cells>
<PointData>
<DataArray Name="Points" NumberOfComponents="3" format="ascii" type="Float32">1.4 7.5045400715481447 2 6.0347286461337823 7.0315343666454533 2 8.6950865246318561 1.2400000000000002 2 12.289535963647415 1.3199999999999998 2 12.523123739662612 6.8077095426037157 2 16.269181327458437 7.5459637041324719 2 19.908660832783276 6.7818888542842357 2 25.122318867674796 7.8876147692009795 2 29.517992538533289 7.7557066398818471 2 29.863469902611129 14.488915028967106 2 33.348673938771157 8.0779780240764847 2 33.962868289371272 6.7279561471425637 2 39.904879972324728 9.7799297820838174 2 42.056907279907335 6.9397843817990843 2 45.540003426283121 8.2341582574930481 2 48.721189218228716 8.2144805898350466 2 57.8982813724556 9.2325753001825444 2 61.140901056164537 13.106558930587276 2 61.372850530772304 1.2400000000000002 2 65.669878405611399 1.2400000000000002 2 69.248336103951061 15.528482538931248 2 70.270153361354645 7.3637865718236091 2 74.14910240851863 7.2671803507431241 2 72.160492605576238 13.824608954885345 2 75.81875972651109 8.6663421757266246 2 77.443385302516461 2.6867757288482403 2 81.240911700796133 6.0105058591968099 2 84.586631839000219 4.9613303896535124 2 90.240895598637664 6.0341286316076195 2 96.864237744739285 8.1171774378578032 2 2.4654786677685445 1.3199999999999998 2 5.48552568990692 1.3199999999999998 2 8.2109317976642107 6.3380177351365043 2 10.872469663149273 14.279633642109733 2 15.008386900334235 4.5481099745074749 2 14.433835828436123 11.874623378002122 2 19.562644998861149 2.4171149165417458 2 25.976924207510692 4.201652806592703 2 26.524107256920558 13.792801325057571 2 32.28942868821661 14.592077764959166 2 29.221014696577857 1.2400000000000002 2 35.123070364702414 1.32 2 37.362006888792806 5.1313856810552636 2 40.951914548069681 2.733527173811285 2 45.235030688828644 2.0228753428738506 2 47.152639941701146 4.4732463438586292 2 56.74448303843603 1.4 2 60.47938053837985 5.1313323426855959 2 66.271569796194584 7.2242892010852895 2 66.998067229586354 9.5689824981426543 2 64.640852147494783 14.085299033675842 2 68.618770069564889 2.1965580060813585 2 72.632133097893146 1.6587906668097849 2 78.779703976991016 13.370375964699925 2 76.288569736306556 1.2400000000000002 2 79.114122891316683 5.5694419626224345 2 82.851215415922184 1.32 2 82.921837783882822 13.588854409107359 2 93.44552843581566 7.8427810005182259 2 96.463244823125365 4.5488967229448978 2 1.4 13.181876782189159 2 5.3879087385163951 12.145890810715761 2 7.8381239496692041 2.1702781504988393 2 12.698555829350584 3.2244355714526582 2 11.610314057677016 9.3044052902708003 2 18.831693188300729 6.4212363261720569 2 21.636524135804976 10.254666389876743 2 24.307432737910716 5.5176906256515545 2 27.968403898761895 7.4230431702659905 2 27.210549342537103 11.930773761152135 2 29.460723641980376 4.7409998525209636 2 34.433901407718466 10.168726706532699 2 38.98671653892653 7.6617783597254139 2 41.435230785305087 9.3220380199526378 2 45.495706207902202 14.492056519177973 2 49.414374943652838 5.9072735187830263 2 59.194193490385608 12.875248485747653 2 61.118516286222402 9.5628489645730852 2 64.191098854886818 5.3544273238685687 2 66.330203214438626 3.3967144145924046 2 68.063854364452055 11.771452145271365 2 70.184385317111293 10.29369037003095 2 72.931070662115772 5.4625498192077035 2 75.962854559871928 13.771456741713882 2 73.436840294357495 10.598101897255914 2 79.929943702530267 2.1542799983223198 2 81.069079186455454 12.39814215664753 2 85.185189366848263 1.4 2 92.061681043413657 1.4 2 96.899713386749454 9.8705574626417025 2 1.3199999999999998 6.0723659743088856 2 5.0775262102499354 5.1249795228944777 2 9.835292228652543 6.6375019100158426 2 9.4342439422672477 10.660933530834818 2 16.165479623695802 1.4 2 13.80511718160477 8.8648721983759255 2 20.947377705339143 3.8722485821514305 2 25.31823656412584 1.4 2 24.789570971616627 11.570362866034428 2 36.636093725132895 13.583764321231962 2 31.453219301550508 1.2400000000000002 2 33.515837120067317 3.1372996721658239 2 37.380217812211001 3.0203019483401023 2 42.222002599209951 2.1895163741304158 2 45.157776699313835 4.4748322558260423 2 48.166842146461697 2.3389458097760283 2 54.773362607593242 4.0865445800360272 2 59.14828759585609 1.2400000000000002 2 62.106050324140824 6.7278086348946049 2 67.629308108632316 5.7665417367402725 2 66.286817633765509 12.127848503255217 2 69.207305506352412 4.3839960288125237 2 70.543880023357929 1.2400000000000002 2 78.039982042809314 15.665416575469719 2 75.659030547920921 5.3432096861573992 2 78.696528653497523 8.8055041211816221 2 81.927383681620569 4.2135377309909163 2 86.096533032919751 11.349714279699898 2 93.264080493487853 4.9067618909294408 2 95.425542040369976 1.3199999999999998 2 2.6788358859360177 10.972050779484455 2 4.4222781474860913 7.9804731057290459 2 10.204598056946628 2.4093909911937561 2 11.255030605573008 1.2400000000000002 2 16.686303554309657 9.8058773582678533 2 18.804086637397042 8.450624595404598 2 25.931368132103149 5.2139434778314655 2 29.772784582488129 10.079788187323043 2 31.119379398222073 11.132460004580166 2 32.536422899067524 6.22823718514669 2 40.250015886216161 11.778811570845532 2 43.675086390987325 8.5766427528522264 2 49.040375128951155 10.490314533003307 2 57.753310522419376 11.235917434930593 2 60.528357941038315 11.324927556029031 2 63.062112919127621 1.2400000000000002 2 64.809694498233725 1.7853485802947096 2 71.506748284779718 16.001928178045883 2 69.691853647942082 8.6812717951979668 2 72.630734417444657 11.658171822054006 2 80.576940308943506 7.7029624847561786 2 84.626306395791985 6.7587373090908711 2 91.779160597132702 4.8709883222738561 2 96.535713374284398 6.2850628453050765 2 1.2400000000000002 1.3158078965552131 2 4.5117448910271962 1.9037585339279035 2 8.0958398394468638 8.6292040681504023 2 13.734355324399266 13.89117524856483 2 15.485742201683017 3.6523167014504203 2 16.508488163040333 12.630561651532837 2 19.092824631791352 1.3199999999999998 2 25.121864709713631 15.887967544198297 2 34.537999941481544 13.746911933924096 2 28.347820240600104 1.2400000000000002 2 32.915197081198627 2.3394845657740397 2 35.73558666764086 3.738185503376815 2 40.439129515692855 5.2394448530023672 2 43.079643959649331 3.0246492056416892 2 47.788594861504308 5.5326431084987622 2 56.551822484406109 2.6749275823715855 2 61.070765136446845 6.8332811186326383 2 63.039639424807724 13.119112088205013 2 68.145398105799529 1.2400000000000002 2 71.677604400060432 1.2400000000000002 2 77.239309402142496 11.83392061869978 2 75.28389457263529 2.0408999748870609 2 83.493545486004138 3.0608439241851539 2 85.222529600911358 13.812314470378416 2 95.258147784223553 9.5170296801207126 2 96.841826628364117 3.5439811988688956 2 1.2400000000000002 10.856199077594994 2 5.9776500723002499 9.8397880207299906 2 9.2981161885967882 4.4647320148837331 2 12.258829951889247 12.09772284048309 2 17.816047533811197 5.7308461181422086 2 20.254025313147014 11.88548743244991 2 22.767411998068535 3.9115555931294494 2 29.699212561629299 12.23939562350364 2 30.561525821178602 4.0696926100130186 2 32.740807769613866 11.067160852945509 2 37.138381052733038 6.7382984384804212 2 42.523001412033516 12.044426446411569 2 45.147546352019155 10.47870055560786 2 49.644431221281543 4.7059744229507707 2 58.513897734311932 15.330861219923653 2 63.359961638426114 11.142553481308475 2 67.045376973958412 15.294711211141506 2 70.226484399900485 13.414587450582031 2 73.140816113472042 4.3660669003897947 2 74.033216014024873 15.12384247531404 2 74.654102698539333 12.577446444812255 2 79.524503373312754 1.2400000000000002 2 82.293183940037451 10.89439906472108 2 85.749950767312271 3.00210513288825 2 94.056337944133517 2.4727630510663676 2 95.119066663837657 11.669359715299532 2 1.2400000000000002 3.8766535236730055 2 3.5282279426468 3.5835898644049884 2 8.7995491413150759 12.802290238986847 2 15.085294582931088 1.2400000000000002 2 21.494127436452732 5.9577854309644627 2 27.565964940305204 2.4643180405271021 2 25.998392158325832 9.6388633255772689 2 35.599977720022991 11.753370419860866 2 32.348048840247081 1.2400000000000002 2 38.630563955266467 1.4 2 43.494241962450715 1.2400000000000002 2 42.936571185372244 5.3913749533810575 2 49.410034091188983 1.4 2 56.095936726551301 5.129840862437649 2 60.53564592035044 2.7868053061912494 2 65.400572813954398 9.6764427673299718 2 70.906842231572497 2.7984741235672521 2 80.594583388638227 14.749559188043037 2 79.764736405027321 4.0250869361706609 2 87.494742115967213 13.653642526153938 2 91.351868173246459 2.6996659641897165 2 97.309690030076808 1.3199999999999998 2 11.80824770870408 4.9089719237557929 2 31.555691608059206 8.394198190647403 2 43.453027685725445 7.4664510929915009 2 75.469937081674956 7.526932447616983 2 76.901188517023073 7.3669605009734882 2 77.278124674145204 3.585906034171674 2 24.307215275169987 3.0240996955124029 2 64.648649438885371 7.0497646825146543 2 67.548881008686777 8.2370916702553387 2 78.293136477996953 5.9232854753436071 2 12.703606708026795 4.4982531234844805 2 26.43860266974875 7.0144260753080214 2 63.64017227385412 4.3438563709213431 2 65.68275146435235 3.9548239901806195 2 10.778749756851441 6.4691003442330022 2 14.827984044970426 8.1993418801148508 2 33.896318925023571 4.430510957439787 2 62.880458424144472 5.1984754668963227 2 66.836872844512513 5.488163528391639 2 68.426424635884999 4.0850309213252487 2 74.276366012099771 3.8532322629672802 2 77.727892664629564 9.3694896630071387 2 </DataArray>