<?xml version="1.0" ?>
<VTKFile byte_order="LittleEndian" type="UnstructuredGrid" version="0.1">
<UnstructuredGrid>
<Piece NumberOfCells="0" NumberOfPoints="30">
<Points>
<DataArray NumberOfComponents="3" format="ascii" type="Float32">1.2 1.2 2 5.4195749005401241 1.2 2 9.6141377528735052 1.2 2 11.696301811908695 1.2 2 13.766815784525878 1.2 2 15.825485988612641 1.2 2 19.909781954022222 1.2 2 25.97287720738381 1.2 2 27.982884270538854 1.2 2 29.989531544166766 1.2 2 31.993799687854814 1.2 2 33.996447110917572 1.2 2 37.998947951109656 1.2 2 41.999730887637 1.2 2 43.999872021337097 1.2 2 47.999978474180729 1.2 2 58.000269112363 1.2 2 62.001052048890351 1.2 2 64.001967655825013 1.2 2 66.003552889082428 1.2 2 68.006200312145197 1.2 2 70.010468455833234 1.2 2 72.017115729461153 1.2 2 74.027122792616197 1.2 2 76.041693079277877 1.2 2 78.062220818904251 1.2 2 80.090218045977778 1.2 2 84.174514011387373 1.2 2 92.478697988621875 1.2 2 96.688541680438476 1.2 2 </DataArray>
</Points>
<Cells>
<DataArray Name="connectivity" format="ascii" type="Int32">0</DataArray>
<DataArray Name="offsets" format="ascii" type="Int32">0</DataArray>
<DataArray Name="types" format="ascii" type="UInt8">1</DataArray>
</Cells>
<PointData>
<DataArray Name="Points" NumberOfComponents="3" format="ascii" type="Float32">1.2 1.2 2 5.4195749005401241 1.2 2 9.6141377528735052 1.2 2 11.696301811908695 1.2 2 13.766815784525878 1.2 2 15.825485988612641 1.2 2 19.909781954022222 1.2 2 25.97287720738381 1.2 2 27.982884270538854 1.2 2 29.989531544166766 1.2 2 31.993799687854814 1.2 2 33.996447110917572 1.2 2 37.998947951109656 1.2 2 41.999730887637 1.2 2 43.999872021337097 1.2 2 47.999978474180729 1.2 2 58.000269112363 1.2 2 62.001052048890351 1.2 2 64.001967655825013 1.2 2 66.003552889082428 1.2 2 68.006200312145197 1.2 2 70.010468455833234 1.2 2 72.017115729461153 1.2 2 74.027122792616197 1.2 2 76.041693079277877 1.2 2 78.062220818904251 1.2 2 80.090218045977778 1.2 2 84.174514011387373 1.2 2 92.478697988621875 1.2 2 96.688541680438476 1.2 2 </DataArray>
<DataArray Name="forces" NumberOfComponents="3" format="ascii" type="Float32">-0.287341173627921 0.0 0.0 -0.0065893130953300627 0.0 0.0 -0.010963303085445908 0.0 0.0 -0.011933815303548201 0.0 0.0 -0.01208905761201251 0.0 0.0 -0.011539483394649608 0.0 0.0 -0.0090329710299599242 0.0 0.0 -0.0044916377315651346 0.0 0.0 -0.0032782418135539615 0.0 0.0 -0.0022991660528077773 0.0 0.0 -0.0015498594636120799 0.0 0.0 -0.0010041661680268987 0.0 0.0 -0.00037389010839916637 0.0 0.0 -0.00011804925634351093 0.0 0.0 -6.1901140000486521e-05 0.0 0.0 -1.2147211144508674e-05 0.0 0.0 0.00011804925635061636 0.0 0.0 0.00037389010837785008 0.0 0.0 0.00062519867286425779 0.0 0.0 0.0010041661680162406 0.0 0.0 0.0015498594636227381 0.0 0.0 0.0022991660527935665 0.0 0.0 0.0032782418135610669 0.0 0.0 0.0044916377315615819 0.0 0.0 0.0059107290558273462 0.0 0.0 0.0074640774082013195 0.0 0.0 0.0090329710299670296 0.0 0.0 0.011539483394628292 0.0 0.0 0.0091548447401805788 0.0 0.0 0.0034495503589511145 0.0 0.0 </DataArray>
<DataArray Name="radii" format="ascii" type="Float32">1.2 1.2 1.2 1.2 1.2 1.2 1.2 1.2 1.2 1.2 1.2 1.2 1.2 1.2 1.2 1.2 1.2 1.2 1.2 1.2 1.2 1.2 1.2 1.2 1.2 1.2 1.2 1.2 1.2 1.2 </DataArray>
</PointData>
<CellData/>
</Piece>
</UnstructuredGrid>
</VTKFile>
