<?xml version="1.0" ?>
<VTKFile byte_order="LittleEndian" type="UnstructuredGrid" version="0.1">
<UnstructuredGrid>
<Piece NumberOfCells="0" NumberOfPoints="120">
<Points>
<DataArray NumberOfComponents="3" format="ascii" type="Float32">1.4 6.0905844980503421 2 6.2084788529728145 5.8275013876520365 2 10.212366767611755 1.4 2 12.02042528719821 1.3199999999999998 2 12.234298449788392 4.7400681164107903 2 16.150561095319166 7.0283602820728976 2 19.203246953886712 5.846295286472504 2 25.421392620757 5.5806605725389815 2 29.315088108363135 6.5454561646095435 2 30.874341989884659 9.7546489474249398 2 31.575619842124087 6.3881869176412636 2 33.406566041112583 5.334266235125245 2 39.879920094177471 7.3561816298522835 2 42.14584375846183 5.3973346267407161 2 44.141194647588314 6.5161314435556195 2 48.936175988445413 6.3339847656859423 2 58.148377273566325 7.9835455295408861 2 60.578226096347244 8.4390409994456377 2 63.034667992734086 1.3199999999999998 2 65.123660312025791 1.3199999999999998 2 69.834674896896274 11.067963516906207 2 70.471706623017965 5.8805709548917813 2 74.605076284062292 5.2546082367584619 2 72.222706775256981 10.18513675693058 2 75.990484729264125 6.8248021413008555 2 76.937202958078615 2.3133156912303967 2 79.849697158275688 5.7085904826836051 2 83.787986685704325 3.98566318590164 2 91.336534241410376 3.8464777618838188 2 96.59442303986286 5.6107340242403652 2 1.4 1.4 2 5.801121955009056 1.4 2 8.536218743192439 5.6335560139352303 2 12.156718441982385 10.239646242448099 2 15.211458480079175 3.6904886813744162 2 14.891240928460519 10.170755788453755 2 19.204078480690026 1.4 2 26.195986774586096 3.420467827896934 2 25.883803534088397 10.792889058339242 2 33.214683053467681 10.721449491181046 2 29.436725135775358 1.3199999999999998 2 33.70143911864146 1.4 2 36.97261599198886 3.5210235918531598 2 41.129262293633737 3.2571254393266575 2 44.168024602300271 1.4 2 47.409760944866157 3.8076379329267431 2 57.628793028338833 1.4 2 61.776324956560046 4.595789937638445 2 65.122841513216628 5.7486166587878254 2 67.402728623259023 6.3166313437225661 2 65.427598364911162 10.616793989981598 2 69.157600350266122 1.3199999999999998 2 72.569735225720464 1.4 2 77.317581321070264 8.9520972298003905 2 75.45338317339467 1.4 2 78.190398114436576 4.3852779666637067 2 80.743290778363956 1.4 2 84.061686540752348 9.0711426716293175 2 94.387238315557923 6.2101306998521837 2 96.979109926559232 3.2397685560136251 2 1.4 8.7057575422173752 2 5.5877497495122981 8.1677248168445153 2 9.1340719697540393 3.0279660710196556 2 13.335537894741218 3.2586650017242089 2 12.248725972588602 7.671747545214358 2 16.975528557173444 5.245204831781594 2 20.478517169569958 8.2776595634268872 2 24.295742723660602 3.6453227184354953 2 27.407447829706477 5.2729944550185461 2 28.397848258335308 9.6966333946547909 2 29.882150507936686 3.9889444801386058 2 33.246831492502757 8.0659157888843769 2 38.213704094874707 5.7089935630106714 2 42.416077805759301 8.0712304175682998 2 44.851530805186393 8.9461676026438077 2 49.3290601721434 3.8341292090186823 2 58.704164810342156 10.463380830489919 2 62.878932691785167 8.0051054437522708 2 65.395950484983672 3.9520982601724279 2 66.589480259851712 2.9053755520925924 2 68.18705395332131 9.3217009659718872 2 70.481139438487659 8.3081054719942156 2 72.989288049223731 4.0656224100698415 2 74.652246452331497 11.249684239553863 2 73.994588079532576 8.6235137185379589 2 78.941960764679266 1.3199999999999998 2 81.687395453765191 8.6180097084159382 2 84.621979721272666 1.4 2 92.48078893818024 1.4 2 96.266809719204787 8.0331682936615927 2 1.4 3.6734533216877123 2 5.1016902998394134 3.6126173417911311 2 10.696193321667097 4.909165428401483 2 10.084244412029127 8.614172286908266 2 15.0049193702623 1.4 2 14.258292221803455 6.5921395790179353 2 20.386586576266684 3.6900288948621998 2 26.820026607486138 1.4 2 26.324400858717116 8.3400640596779319 2 35.451807420566162 9.4953982618426984 2 31.681347754865623 1.3199999999999998 2 32.755357429045084 3.2025397396665909 2 37.837107723033206 1.4 2 42.038404756902843 1.4 2 43.158382226549762 3.3492751711431179 2 48.173356176479253 1.4 2 55.937941075480559 3.3856948180794006 2 61.270665507486385 1.4 2 63.548958998544641 4.6243319952550035 2 67.755236284272328 4.1170251367890041 2 66.186946910584027 8.3007119230470501 2 69.498865016099188 3.1089453033560126 2 70.877348357897958 1.3199999999999998 2 78.05083237706792 11.27852292383707 2 74.909081519231322 3.3102578146425543 2 77.780767795958894 6.903836014592863 2 80.003128441836708 3.5900668101093682 2 86.392858164845777 8.6515884551322042 2 93.228213151271149 3.826998536130175 2 96.435556588922509 1.4 2 </DataArray>
</Points>
<Cells>
<DataArray Name="connectivity" format="ascii" type="Int32">0</DataArray>
<DataArray Name="offsets" format="ascii" type="Int32">0</DataArray>
<DataArray Name="types" format="ascii" type="UInt8">1</DataArray>
</Cells>
<PointData>
<DataArray Name="Points" NumberOfComponents="3" format="ascii" type="Float32">1.4 6.0905844980503421 2 6.2084788529728145 5.8275013876520365 2 10.212366767611755 1.4 2 12.02042528719821 1.3199999999999998 2 12.234298449788392 4.7400681164107903 2 16.150561095319166 7.0283602820728976 2 19.203246953886712 5.846295286472504 2 25.421392620757 5.5806605725389815 2 29.315088108363135 6.5454561646095435 2 30.874341989884659 9.7546489474249398 2 31.575619842124087 6.3881869176412636 2 33.406566041112583 5.334266235125245 2 39.879920094177471 7.3561816298522835 2 42.14584375846183 5.3973346267407161 2 44.141194647588314 6.5161314435556195 2 48.936175988445413 6.3339847656859423 2 58.148377273566325 7.9835455295408861 2 60.578226096347244 8.4390409994456377 2 63.034667992734086 1.3199999999999998 2 65.123660312025791 1.3199999999999998 2 69.834674896896274 11.067963516906207 2 70.471706623017965 5.8805709548917813 2 74.605076284062292 5.2546082367584619 2 72.222706775256981 10.18513675693058 2 75.990484729264125 6.8248021413008555 2 76.937202958078615 2.3133156912303967 2 79.849697158275688 5.7085904826836051 2 83.787986685704325 3.98566318590164 2 91.336534241410376 3.8464777618838188 2 96.59442303986286 5.6107340242403652 2 1.4 1.4 2 5.801121955009056 1.4 2 8.536218743192439 5.6335560139352303 2 12.156718441982385 10.239646242448099 2 15.211458480079175 3.6904886813744162 2 14.891240928460519 10.170755788453755 2 19.204078480690026 1.4 2 26.195986774586096 3.420467827896934 2 25.883803534088397 10.792889058339242 2 33.214683053467681 10.721449491181046 2 29.436725135775358 1.3199999999999998 2 33.70143911864146 1.4 2 36.97261599198886 3.5210235918531598 2 41.129262293633737 3.2571254393266575 2 44.168024602300271 1.4 2 47.409760944866157 3.8076379329267431 2 57.628793028338833 1.4 2 61.776324956560046 4.595789937638445 2 65.122841513216628 5.7486166587878254 2 67.402728623259023 6.3166313437225661 2 65.427598364911162 10.616793989981598 2 69.157600350266122 1.3199999999999998 2 72.569735225720464 1.4 2 77.317581321070264 8.9520972298003905 2 75.45338317339467 1.4 2 78.190398114436576 4.3852779666637067 2 80.743290778363956 1.4 2 84.061686540752348 9.0711426716293175 2 94.387238315557923 6.2101306998521837 2 96.979109926559232 3.2397685560136251 2 1.4 8.7057575422173752 2 5.5877497495122981 8.1677248168445153 2 9.1340719697540393 3.0279660710196556 2 13.335537894741218 3.2586650017242089 2 12.248725972588602 7.671747545214358 2 16.975528557173444 5.245204831781594 2 20.478517169569958 8.2776595634268872 2 24.295742723660602 3.6453227184354953 2 27.407447829706477 5.2729944550185461 2 28.397848258335308 9.6966333946547909 2 29.882150507936686 3.9889444801386058 2 33.246831492502757 8.0659157888843769 2 38.213704094874707 5.7089935630106714 2 42.416077805759301 8.0712304175682998 2 44.851530805186393 8.9461676026438077 2 49.3290601721434 3.8341292090186823 2 58.704164810342156 10.463380830489919 2 62.878932691785167 8.0051054437522708 2 65.395950484983672 3.9520982601724279 2 66.589480259851712 2.9053755520925924 2 68.18705395332131 9.3217009659718872 2 70.481139438487659 8.3081054719942156 2 72.989288049223731 4.0656224100698415 2 74.652246452331497 11.249684239553863 2 73.994588079532576 8.6235137185379589 2 78.941960764679266 1.3199999999999998 2 81.687395453765191 8.6180097084159382 2 84.621979721272666 1.4 2 92.48078893818024 1.4 2 96.266809719204787 8.0331682936615927 2 1.4 3.6734533216877123 2 5.1016902998394134 3.6126173417911311 2 10.696193321667097 4.909165428401483 2 10.084244412029127 8.614172286908266 2 15.0049193702623 1.4 2 14.258292221803455 6.5921395790179353 2 20.386586576266684 3.6900288948621998 2 26.820026607486138 1.4 2 26.324400858717116 8.3400640596779319 2 35.451807420566162 9.4953982618426984 2 31.681347754865623 1.3199999999999998 2 32.755357429045084 3.2025397396665909 2 37.837107723033206 1.4 2 42.038404756902843 1.4 2 43.158382226549762 3.3492751711431179 2 48.173356176479253 1.4 2 55.937941075480559 3.3856948180794006 2 61.270665507486385 1.4 2 63.548958998544641 4.6243319952550035 2 67.755236284272328 4.1170251367890041 2 66.186946910584027 8.3007119230470501 2 69.498865016099188 3.1089453033560126 2 70.877348357897958 1.3199999999999998 2 78.05083237706792 11.27852292383707 2 74.909081519231322 3.3102578146425543 2 77.780767795958894 6.903836014592863 2 80.003128441836708 3.5900668101093682 2 86.392858164845777 8.6515884551322042 2 93.228213151271149 3.826998536130175 2 96.435556588922509 1.4 2 </DataArray>
<DataArray Name="forces" NumberOfComponents="3" format="ascii" type="Float32">-0.33440177646340008 0.21452405784777864 0.0 -0.026351984555858382 0.18976922844728339 0.0 -0.058950129618556175 -0.78006171387546885 0.0 -0.012009259559964569 -0.50660568791728833 0.0 -0.02872858406920431 0.01222959264729364 0.0 0.025279776423235645 0.22812827191696433 0.0 -0.077489916670400172 0.22140330310720871 0.0 -0.022748244621157709 0.12424826266007566 0.0 -0.026446433356985155 0.2136902402903858 0.0 0.02470357530625094 0.19403123986545856 0.0 -0.020525804765518525 0.15433893188757053 0.0 -0.0056299964815925141 0.16647985260233022 0.0 -0.087700618991618684 0.35186626614331679 0.0 0.055781449057034971 0.13973260796606796 0.0 0.048600358423684945 0.26278305616934095 0.0 -0.019625578116191339 0.17727112671184483 0.0 -0.052007687257976679 0.25219448900742558 0.0 -0.052612382637889976 0.28815296299359144 0.0 0.0061482929440762057 -0.99992511180202559 0.0 -0.028176693582709855 -1.0619772965262575 0.0 -0.02078926988324778 0.32365424012992494 0.0 -0.013288964271081699 0.23990597075376949 0.0 0.054009519699296876 0.13749683461562792 0.0 -0.0032903854447591252 0.26712648334661532 0.0 0.050232033994791314 0.11198454337752169 0.0 0.0077802832738301034 0.062512145188563809 0.0 -0.033844567568504139 0.11841841954738519 0.0 0.00573988560131692 0.17294934764706207 0.0 -0.016092324430361349 0.10907995907815406 0.0 0.013613020968405498 0.12659350213933851 0.0 -0.58371258027510819 -0.53526727474645952 0.0 -0.038826585029768795 -0.61298800901150496 0.0 -0.029667556354008362 0.16060088504981515 0.0 0.061192639450639547 0.25712502716482466 0.0 -0.087827165025082074 0.071842062639136256 0.0 0.061901711764925427 0.22709724518472985 0.0 0.012254551553367521 -0.72946892289887666 0.0 -0.033948201899301922 0.11841049069729498 0.0 -0.094414473252233164 0.25188187748771096 0.0 0.030936496150989895 0.28990863587188104 0.0 0.0095219382074944736 -0.94904734340713759 0.0 0.032278612543428203 -0.95033616557729372 0.0 0.014343539957066831 0.10276889836051459 0.0 0.067525041116295398 0.13188878310443541 0.0 -0.0071352762182559926 -0.83603681410166863 0.0 0.0057287837734250474 0.060272942770098648 0.0 -0.032680369195350861 -0.57905086917387505 0.0 -0.081478587160925653 0.23225670566535983 0.0 -0.013438891143165765 0.16237810904540823 0.0 -0.029257017142745395 0.13511935267487496 0.0 -0.054964443299045242 0.21289310823336793 0.0 0.018604850451382327 -0.96274463033399682 0.0 -0.0052706566303669863 -0.91671270862173482 0.0 -0.014735089117212552 0.26140627430862684 0.0 -0.027635687147576693 -0.8601974510227024 0.0 0.050551326606146814 0.052912871108605875 0.0 0.050606619675420739 -0.73738982290128663 0.0 0.02038684475724406 0.4066719590114084 0.0 0.026847979242636683 0.14764716701953853 0.0 0.018977074573288427 0.056378074734836026 0.0 -0.71653843502038927 0.26220229635456149 0.0 0.016744095676364645 0.22938328950939138 0.0 -0.026683077454251802 0.10126188262879754 0.0 -0.0029067859103571597 0.020307669524764121 0.0 -0.022361717796610378 0.23285691796468175 0.0 -0.12138164295789991 0.085688769419013489 0.0 0.04563963924601111 0.24086133541932533 0.0 -0.048947198962705482 0.084462282835075328 0.0 -0.00016081356557040571 0.073754702598894217 0.0 -0.054461779919297237 0.30647212788585898 0.0 -0.010372162036402899 0.069334687081490529 0.0 0.026071903883448072 0.25690870126623999 0.0 0.01826399737804385 0.10735234790292311 0.0 -0.053550411365336392 0.18528317116555315 0.0 -0.082722473724295587 0.37410126758139134 0.0 0.025909731923754141 0.092276988907644145 0.0 0.086049393732012924 0.28501678139867542 0.0 -0.03106613577084661 0.26417856383286509 0.0 -0.043795132165512118 0.16004119301719055 0.0 -0.04669428264644248 0.061152981313141175 0.0 -0.081274613747323962 0.32775706437315927 0.0 -0.04814614098581993 0.29304915385917008 0.0 -0.021095721262659961 0.11917427447032747 0.0 0.0254951150028912 0.237075700401848 0.0 0.015245729340902528 0.21686629650870257 0.0 0.013237049491408248 -0.60163725479892205 0.0 0.0072030902858680745 0.29649365581458298 0.0 0.022312348565001416 -0.3093167429426093 0.0 -0.022920195031341128 -0.3499378432622986 0.0 0.01920243047540196 0.20555006832549289 0.0 -1.0575363627130321 0.13245759762950349 0.0 -0.034263242202736355 0.13675461568979297 0.0 -0.088492817838200177 0.16289420339081967 0.0 0.0090043465695427809 0.29400232822418709 0.0 0.051322158647056026 -0.66376822893249832 0.0 -0.092342666132173123 0.19449406286028426 0.0 -0.022327029731656303 0.12830030679224119 0.0 -0.034484738577933105 -0.61983038263243984 0.0 -0.048067926331581419 0.21008266048452354 0.0 0.036872862997997274 0.26680426146202846 0.0 0.0014950471639965657 -0.86418004736836662 0.0 0.034486045070382776 0.071282642607734037 0.0 0.032622172569557517 -0.70310229405033464 0.0 0.0038511975934835407 -1.0058246700747706 0.0 0.041067699673345226 0.11284403447739777 0.0 0.0056698608409271115 -0.36328817726509566 0.0 -0.055699893252652927 0.11397356870064801 0.0 -0.0049126693910646335 -0.74523430989592576 0.0 -0.059392421973279819 0.13523298360961702 0.0 -0.00071177420940432556 0.079030829634474831 0.0 0.023901045272103724 0.19889595655656764 0.0 -0.017037917082228848 0.10317781802032309 0.0 -8.8382730002237175e-05 -0.9294671996663677 0.0 0.084351894648296816 0.27095495588791657 0.0 -0.016880006767592715 0.076095122455860253 0.0 0.083143097458267534 0.24915573073185213 0.0 0.05125219877398024 0.067141746874493091 0.0 0.011720836183606864 0.14789723294761278 0.0 -0.013993285731763692 0.1072728552081374 0.0 -0.027938027736901239 -0.9362895469550685 0.0 </DataArray>
<DataArray Name="radii" format="ascii" type="Float32">1.4 1.4 1.4 1.3199999999999998 1.2400000000000002 1.4 1.4 1.3199999999999998 1.2400000000000002 1.4 1.2400000000000002 1.3199999999999998 1.4 1.2400000000000002 1.3199999999999998 1.4 1.4 1.4 1.3199999999999998 1.3199999999999998 1.4 1.32 1.2400000000000002 1.4 1.2400000000000002 1.2400000000000002 1.3199999999999998 1.4 1.4 1.4 1.4 1.4 1.4 1.4 1.3199999999999998 1.4 1.4 1.2400000000000002 1.4 1.4 1.3199999999999998 1.4 1.4 1.3199999999999998 1.4 1.4 1.4 1.32 1.2400000000000002 1.2400000000000002 1.4 1.3199999999999998 1.4 1.32 1.4 1.2400000000000002 1.4 1.4 1.4 1.4 1.4 1.4 1.3199999999999998 1.2400000000000002 1.32 1.3199999999999998 1.4 1.4 1.2400000000000002 1.4 1.2400000000000002 1.32 1.4 1.4 1.4 1.4 1.4 1.4 1.2400000000000002 1.2400000000000002 1.32 1.4 1.3199999999999998 1.4 1.32 1.3199999999999998 1.4 1.4 1.4 1.4 1.4 1.4 1.2400000000000002 1.4 1.4 1.2400000000000002 1.4 1.4 1.32 1.4 1.3199999999999998 1.2400000000000002 1.4 1.4 1.3199999999999998 1.4 1.4 1.4 1.2400000000000002 1.2400000000000002 1.2400000000000002 1.2400000000000002 1.3199999999999998 1.4 1.2400000000000002 1.2400000000000002 1.32 1.4 1.4 1.4 </DataArray>
</PointData>
<CellData/>
</Piece>
</UnstructuredGrid>
</VTKFile>
