<?xml version="1.0" ?>
<VTKFile byte_order="LittleEndian" type="UnstructuredGrid" version="0.1">
<UnstructuredGrid>
<Piece NumberOfCells="0" NumberOfPoints="218">
<Points>
<DataArray NumberOfComponents="3" format="ascii" type="Float32">1 7.2487536260449961 2 6.2665087178324832 6.6420247495400622 2 9.2957058353483308 1 2 12.353080970371716 1 2 11.996497028797901 5.5746696857019424 2 16.531650146927444 6.9223491001530286 2 19.638403453267543 6.1727323698888776 2 25.192184726846783 6.8304211204417076 2 29.479498800241458 7.4795863577379533 2 30.780877339582375 12.387857162884549 2 32.612614578256725 7.9958807368417482 2 33.973529511224534 6.2132079227036536 2 39.71285706320117 8.5656832472384714 2 42.320963936217503 6.8244006025911341 2 44.687867728435194 7.8331972969181436 2 49.011501147096091 7.0305145471552128 2 58.078908895467933 8.3135576511073079 2 61.325945877318844 11.349367754580895 2 61.558143901718573 1 2 65.655925094234533 1 2 69.042842108183976 13.054730196646537 2 70.535823928855947 6.8273084150555903 2 74.04029589600691 6.4847135617741776 2 72.010897554394987 12.347513372720643 2 76.424664413606735 7.9074664485787824 2 77.102672531481574 2.4422517703344777 2 81.034176173996102 5.2893059969598104 2 84.731372793674481 4.1334224546534388 2 90.474690242872114 5.2600613051402219 2 97.124886221447639 7.2507772531606882 2 1.7678513023006996 1 2 5.5426685409954635 1 2 7.8632934158070134 6.3834443844238304 2 11.514004842303217 12.744191643597487 2 15.889139343870607 4.3582160877391019 2 15.076884185671654 11.582984043409772 2 19.640971271569576 2.4930686095161558 2 25.327570691312726 3.7204777841519006 2 25.943950284839261 11.990663058646335 2 32.671195273819933 12.644387482929739 2 29.650848239121704 1 2 34.454890925043642 1 2 37.622245494614432 4.2632325478064814 2 40.781985850895374 2.6182893180725326 2 44.770223287371607 2.1326752728708112 2 47.635282461614302 4.0785097133970796 2 57.325554435917084 1 2 60.323711362001127 4.9997902407093253 2 65.735846209524396 6.3932094854515347 2 67.284600964116521 8.9106693437283102 2 65.27995250231487 12.450991119739758 2 69.512976038556545 1 2 72.679537777701825 1 2 77.691820176602079 12.100454861957227 2 75.871217791077314 1 2 79.190978617081257 5.2136158182824746 2 81.817955517343307 1 2 83.270648682352203 11.242370596640658 2 93.465456709560499 7.2144507324435132 2 97.12219839602372 4.319236746213126 2 1.8958311367249885 11.022373193879305 2 5.487272585042331 10.426068292720535 2 8.293807007879435 2.6527710757737881 2 13.097329087920786 3.3684252296460362 2 11.628244850803556 9.028753970512021 2 18.099148328859059 6.2922995437977081 2 21.355798397504913 9.4046746940793788 2 24.161198057671669 5.1823370781256592 2 27.4630269491409 6.5608675188310404 2 27.436664866046815 10.942092746709353 2 29.533960516885845 4.7483693307549899 2 34.247176196443831 9.1340572460112313 2 38.669224668941581 7.0976853793835399 2 41.341293007442097 9.0468854880061311 2 44.692733575602816 11.78943998223717 2 49.145361813192615 5.235316894167295 2 59.40948948120112 11.764329466558316 2 61.705186474213058 9.5178920536502076 2 63.997626096218923 5.1247257256728256 2 66.364555310067971 3.3575119118267667 2 68.131786947980956 11.330954976870318 2 70.247068962145349 9.8909306941955144 2 72.844349762413984 4.8597498015206799 2 75.825378101103581 12.67016229716266 2 73.51645152329742 9.9531168180689562 2 80.256813490936992 1.846250550103087 2 81.277181339401579 11.26560987731869 2 84.857034270065341 1 2 92.562273695827486 1 2 96.644791000745514 9.0901337064041776 2 1 5.2968473524693538 2 5.422722681289101 5.1314800578791591 2 9.8168897908781947 6.2296149311980695 2 10.207856880055701 10.057369189825446 2 16.030506040192339 1 2 14.606570339129631 8.1443405656410786 2 20.039974585513043 4.0244219832370742 2 25.759205078769003 1 2 24.89690360170788 10.397181027013294 2 36.409615586407156 11.617468944750925 2 30.868633591936838 1 2 33.711723057340585 3.0500015892766879 2 37.667041866190715 2.4969202184946062 2 42.140773228430767 1.5107386184136906 2 44.897349161422852 3.7170558700455807 2 48.136475259463253 2.3836883896247061 2 55.180772021899827 4.0321569549912493 2 60.172489916051191 1 2 62.262270912027802 5.4367589201738999 2 67.601911142536906 5.0389142017509769 2 66.340797535739156 10.918194815804446 2 69.065973234863691 3.9737638564680715 2 70.538312243966999 1 2 78.412118368485253 13.726375452020251 2 74.837640232780515 4.4949972584834503 2 78.371252626679421 9.1124015925055488 2 81.652421872400652 3.8066575708739765 2 85.948041653783207 9.7529067959809623 2 93.5803314282945 4.0603882530081261 2 95.786484576152787 1 2 2.3485894125696518 8.7279351689411317 2 4.7704331733704981 7.3366619241377737 2 9.7504042307300178 2.3716657409087598 2 10.869021662669859 1 2 16.717465260083703 8.5808020995288476 2 18.272711913550935 7.8258735249569877 2 25.907434364308799 5.4549388030061952 2 29.394545629279371 9.4159360640145895 2 30.895973758771333 10.52495030093006 2 32.426593457563982 5.9864330261936241 2 39.926349754963262 10.383346020026945 2 43.134302255481053 8.7846884609104627 2 49.080182007892759 8.9693619614629725 2 58.251888440825226 10.233618061790622 2 59.987336589306473 9.9365765440734943 2 62.709022236100829 1 2 64.592968623016901 1 2 70.823078336659989 13.843925045494501 2 70.240259890482818 8.221175338604235 2 71.885862593934206 10.562148372362689 2 80.701565611846007 6.8090219920702433 2 84.247400300898022 5.7747871111283464 2 91.735188652050169 4.1909770811588247 2 96.007264679572472 5.9297674800960234 2 1 2.3549796738153868 2 4.8166109339143137 2.2620262183290532 2 7.5275090483400406 8.0136051456848971 2 13.274490748699215 11.72982449538166 2 15.404708111882243 2.8937960028801588 2 16.838353670415554 11.420378761738091 2 19.084887901100569 1 2 24.952268696112981 13.640587989148479 2 34.576130702715169 12.412116147249467 2 28.332262628117501 1 2 33.207632829596683 1 2 36.362052291326734 3.0523749392464135 2 40.297870951229804 4.4100095582597714 2 43.342148472775882 2.8902271904450356 2 47.547886501927913 5.8753693855797495 2 56.588733200429516 2.661145032254256 2 60.611197532817748 6.6727535861208285 2 63.37243589908492 11.969902410361643 2 68.41180439602806 1 2 71.696746572821183 1 2 77.237900587830168 10.588538639292171 2 74.882396393037766 1.7556811572542776 2 82.510668176517711 2.4992881553653898 2 85.064859349992787 11.993148088572214 2 95.260862717801174 7.7570157957957511 2 96.592938364140451 2.676768545555293 2 1 9.4063971349781994 2 5.9057652300153363 8.586112692349527 2 9.1538667983370257 4.1222138928113505 2 11.670609401978883 10.90099690912713 2 17.159728895062781 5.1392426056837257 2 19.945109573237467 10.395999309932284 2 22.918494714051334 4.3624712217228971 2 29.205157030371659 11.307805382916413 2 30.717039288226832 3.8194752779151218 2 32.881672946919089 10.607132406354797 2 37.255783380389182 5.9389207406134732 2 42.481739078744042 10.525291044715798 2 44.375210760043828 9.8795383962549774 2 49.172971561008914 3.6328785097601934 2 58.893313926635351 13.630070746858465 2 63.356811117978246 10.05036319735769 2 67.126588620704695 12.948754334047329 2 70.103204672923837 11.552182005027044 2 73.354232180506756 3.5838195847373631 2 73.759005891889515 13.20854373414795 2 74.341712329641155 11.468052891190295 2 79.173029449443746 1 2 82.392083466060981 9.5474990572965002 2 85.625977196495072 2.5075993557247886 2 93.301041009856291 2.5218300442818018 2 95.563853582236661 10.612212947854774 2 1.5642036094019427 3.8057584662191291 2 4.3695701737549903 3.6933014563886815 2 8.6857619481705868 11.06964026027797 2 14.68853031411569 1.901721502810469 2 21.146578602941602 5.2876245424094419 2 27.310087326624362 2.0446599688692562 2 26.289451684414928 9.4559971520876314 2 34.828419806912649 10.633690009324727 2 32.058313284456425 1 2 38.221674138575004 1 2 43.668602386634454 1 2 43.516845866060962 4.7360712136005994 2 49.074309732318902 1 2 56.559348898285315 4.5143653369392061 2 61.045820656625473 2.3486363817731166 2 65.112691896630452 9.5756864425159112 2 71.138224640584738 2.3045070643273693 2 80.142258468908807 12.79837808641588 2 80.257670476043259 3.5509457369294699 2 86.921393571167386 11.402964557808883 2 91.781261494033018 2.5458209592633163 2 97.386708481128423 1 2 </DataArray>
</Points>
<Cells>
<DataArray Name="connectivity" format="ascii" type="Int32">0</DataArray>
<DataArray Name="offsets" format="ascii" type="Int32">0</DataArray>
<DataArray Name="types" format="ascii" type="UInt8">1</DataArray>
</Cells>
<PointData>
<DataArray Name="Points" NumberOfComponents="3" format="ascii" type="Float32">1 7.2487536260449961 2 6.2665087178324832 6.6420247495400622 2 9.2957058353483308 1 2 12.353080970371716 1 2 11.996497028797901 5.5746696857019424 2 16.531650146927444 6.9223491001530286 2 19.638403453267543 6.1727323698888776 2 25.192184726846783 6.8304211204417076 2 29.479498800241458 7.4795863577379533 2 30.780877339582375 12.387857162884549 2 32.612614578256725 7.9958807368417482 2 33.973529511224534 6.2132079227036536 2 39.71285706320117 8.5656832472384714 2 42.320963936217503 6.8244006025911341 2 44.687867728435194 7.8331972969181436 2 49.011501147096091 7.0305145471552128 2 58.078908895467933 8.3135576511073079 2 61.325945877318844 11.349367754580895 2 61.558143901718573 1 2 65.655925094234533 1 2 69.042842108183976 13.054730196646537 2 70.535823928855947 6.8273084150555903 2 74.04029589600691 6.4847135617741776 2 72.010897554394987 12.347513372720643 2 76.424664413606735 7.9074664485787824 2 77.102672531481574 2.4422517703344777 2 81.034176173996102 5.2893059969598104 2 84.731372793674481 4.1334224546534388 2 90.474690242872114 5.2600613051402219 2 97.124886221447639 7.2507772531606882 2 1.7678513023006996 1 2 5.5426685409954635 1 2 7.8632934158070134 6.3834443844238304 2 11.514004842303217 12.744191643597487 2 15.889139343870607 4.3582160877391019 2 15.076884185671654 11.582984043409772 2 19.640971271569576 2.4930686095161558 2 25.327570691312726 3.7204777841519006 2 25.943950284839261 11.990663058646335 2 32.671195273819933 12.644387482929739 2 29.650848239121704 1 2 34.454890925043642 1 2 37.622245494614432 4.2632325478064814 2 40.781985850895374 2.6182893180725326 2 44.770223287371607 2.1326752728708112 2 47.635282461614302 4.0785097133970796 2 57.325554435917084 1 2 60.323711362001127 4.9997902407093253 2 65.735846209524396 6.3932094854515347 2 67.284600964116521 8.9106693437283102 2 65.27995250231487 12.450991119739758 2 69.512976038556545 1 2 72.679537777701825 1 2 77.691820176602079 12.100454861957227 2 75.871217791077314 1 2 79.190978617081257 5.2136158182824746 2 81.817955517343307 1 2 83.270648682352203 11.242370596640658 2 93.465456709560499 7.2144507324435132 2 97.12219839602372 4.319236746213126 2 1.8958311367249885 11.022373193879305 2 5.487272585042331 10.426068292720535 2 8.293807007879435 2.6527710757737881 2 13.097329087920786 3.3684252296460362 2 11.628244850803556 9.028753970512021 2 18.099148328859059 6.2922995437977081 2 21.355798397504913 9.4046746940793788 2 24.161198057671669 5.1823370781256592 2 27.4630269491409 6.5608675188310404 2 27.436664866046815 10.942092746709353 2 29.533960516885845 4.7483693307549899 2 34.247176196443831 9.1340572460112313 2 38.669224668941581 7.0976853793835399 2 41.341293007442097 9.0468854880061311 2 44.692733575602816 11.78943998223717 2 49.145361813192615 5.235316894167295 2 59.40948948120112 11.764329466558316 2 61.705186474213058 9.5178920536502076 2 63.997626096218923 5.1247257256728256 2 66.364555310067971 3.3575119118267667 2 68.131786947980956 11.330954976870318 2 70.247068962145349 9.8909306941955144 2 72.844349762413984 4.8597498015206799 2 75.825378101103581 12.67016229716266 2 73.51645152329742 9.9531168180689562 2 80.256813490936992 1.846250550103087 2 81.277181339401579 11.26560987731869 2 84.857034270065341 1 2 92.562273695827486 1 2 96.644791000745514 9.0901337064041776 2 1 5.2968473524693538 2 5.422722681289101 5.1314800578791591 2 9.8168897908781947 6.2296149311980695 2 10.207856880055701 10.057369189825446 2 16.030506040192339 1 2 14.606570339129631 8.1443405656410786 2 20.039974585513043 4.0244219832370742 2 25.759205078769003 1 2 24.89690360170788 10.397181027013294 2 36.409615586407156 11.617468944750925 2 30.868633591936838 1 2 33.711723057340585 3.0500015892766879 2 37.667041866190715 2.4969202184946062 2 42.140773228430767 1.5107386184136906 2 44.897349161422852 3.7170558700455807 2 48.136475259463253 2.3836883896247061 2 55.180772021899827 4.0321569549912493 2 60.172489916051191 1 2 62.262270912027802 5.4367589201738999 2 67.601911142536906 5.0389142017509769 2 66.340797535739156 10.918194815804446 2 69.065973234863691 3.9737638564680715 2 70.538312243966999 1 2 78.412118368485253 13.726375452020251 2 74.837640232780515 4.4949972584834503 2 78.371252626679421 9.1124015925055488 2 81.652421872400652 3.8066575708739765 2 85.948041653783207 9.7529067959809623 2 93.5803314282945 4.0603882530081261 2 95.786484576152787 1 2 2.3485894125696518 8.7279351689411317 2 4.7704331733704981 7.3366619241377737 2 9.7504042307300178 2.3716657409087598 2 10.869021662669859 1 2 16.717465260083703 8.5808020995288476 2 18.272711913550935 7.8258735249569877 2 25.907434364308799 5.4549388030061952 2 29.394545629279371 9.4159360640145895 2 30.895973758771333 10.52495030093006 2 32.426593457563982 5.9864330261936241 2 39.926349754963262 10.383346020026945 2 43.134302255481053 8.7846884609104627 2 49.080182007892759 8.9693619614629725 2 58.251888440825226 10.233618061790622 2 59.987336589306473 9.9365765440734943 2 62.709022236100829 1 2 64.592968623016901 1 2 70.823078336659989 13.843925045494501 2 70.240259890482818 8.221175338604235 2 71.885862593934206 10.562148372362689 2 80.701565611846007 6.8090219920702433 2 84.247400300898022 5.7747871111283464 2 91.735188652050169 4.1909770811588247 2 96.007264679572472 5.9297674800960234 2 1 2.3549796738153868 2 4.8166109339143137 2.2620262183290532 2 7.5275090483400406 8.0136051456848971 2 13.274490748699215 11.72982449538166 2 15.404708111882243 2.8937960028801588 2 16.838353670415554 11.420378761738091 2 19.084887901100569 1 2 24.952268696112981 13.640587989148479 2 34.576130702715169 12.412116147249467 2 28.332262628117501 1 2 33.207632829596683 1 2 36.362052291326734 3.0523749392464135 2 40.297870951229804 4.4100095582597714 2 43.342148472775882 2.8902271904450356 2 47.547886501927913 5.8753693855797495 2 56.588733200429516 2.661145032254256 2 60.611197532817748 6.6727535861208285 2 63.37243589908492 11.969902410361643 2 68.41180439602806 1 2 71.696746572821183 1 2 77.237900587830168 10.588538639292171 2 74.882396393037766 1.7556811572542776 2 82.510668176517711 2.4992881553653898 2 85.064859349992787 11.993148088572214 2 95.260862717801174 7.7570157957957511 2 96.592938364140451 2.676768545555293 2 1 9.4063971349781994 2 5.9057652300153363 8.586112692349527 2 9.1538667983370257 4.1222138928113505 2 11.670609401978883 10.90099690912713 2 17.159728895062781 5.1392426056837257 2 19.945109573237467 10.395999309932284 2 22.918494714051334 4.3624712217228971 2 29.205157030371659 11.307805382916413 2 30.717039288226832 3.8194752779151218 2 32.881672946919089 10.607132406354797 2 37.255783380389182 5.9389207406134732 2 42.481739078744042 10.525291044715798 2 44.375210760043828 9.8795383962549774 2 49.172971561008914 3.6328785097601934 2 58.893313926635351 13.630070746858465 2 63.356811117978246 10.05036319735769 2 67.126588620704695 12.948754334047329 2 70.103204672923837 11.552182005027044 2 73.354232180506756 3.5838195847373631 2 73.759005891889515 13.20854373414795 2 74.341712329641155 11.468052891190295 2 79.173029449443746 1 2 82.392083466060981 9.5474990572965002 2 85.625977196495072 2.5075993557247886 2 93.301041009856291 2.5218300442818018 2 95.563853582236661 10.612212947854774 2 1.5642036094019427 3.8057584662191291 2 4.3695701737549903 3.6933014563886815 2 8.6857619481705868 11.06964026027797 2 14.68853031411569 1.901721502810469 2 21.146578602941602 5.2876245424094419 2 27.310087326624362 2.0446599688692562 2 26.289451684414928 9.4559971520876314 2 34.828419806912649 10.633690009324727 2 32.058313284456425 1 2 38.221674138575004 1 2 43.668602386634454 1 2 43.516845866060962 4.7360712136005994 2 49.074309732318902 1 2 56.559348898285315 4.5143653369392061 2 61.045820656625473 2.3486363817731166 2 65.112691896630452 9.5756864425159112 2 71.138224640584738 2.3045070643273693 2 80.142258468908807 12.79837808641588 2 80.257670476043259 3.5509457369294699 2 86.921393571167386 11.402964557808883 2 91.781261494033018 2.5458209592633163 2 97.386708481128423 1 2 </DataArray>
<DataArray Name="forces" NumberOfComponents="3" format="ascii" type="Float32">-0.072571454931271623 0.12341548395886043 0.0 -0.049517979512515652 0.11165412466409841 0.0 -0.060860554673840328 -0.77267338291723897 0.0 -0.031522927184302801 -0.6147751088216542 0.0 0.019700526810967123 0.1258545569379052 0.0 0.021292960752078441 0.089809067833017231 0.0 0.012975710189904288 0.038848909190625266 0.0 -0.00039972278292660368 0.10684478076126019 0.0 -0.0030248559631053107 0.12535115214515896 0.0 -0.027014743971151417 0.17191708781744219 0.0 0.015354580584766249 0.10726625074759816 0.0 0.0016029295152226175 0.079579798022326731 0.0 0.018342834497347582 0.077904441328913054 0.0 0.013666174623445368 0.083744431773955241 0.0 0.013212963296278052 0.12947795687095906 0.0 -0.041367686625794181 0.082668693679682659 0.0 -0.059065778682854009 0.093214146218035504 0.0 0.056185530155434857 0.16380281480429723 0.0 -0.076260808548200304 -0.58800489126830047 0.0 -0.0096870198064730184 -0.43966013727246428 0.0 -0.037716072153805319 0.16182673861003519 0.0 -0.012362781100559786 0.044171028203293439 0.0 0.019771353050547946 0.13088326903863678 0.0 0.023107802253616673 0.11694963402303246 0.0 0.030795211838490877 0.10907089477501421 0.0 0.034463679101396305 0.023802644199280382 0.0 0.029289507176708147 0.0081779273634599581 0.0 0.073115284572159739 0.018830217288918621 0.0 0.0048157766012204006 0.064873137631113631 0.0 0.016360522975593025 0.11394591530542611 0.0 0.018018679510175273 -0.46860833763107468 0.0 0.028851242639551911 -0.76227438330371577 0.0 -0.071906235713468214 0.054523713216816705 0.0 -0.013273548553505477 0.15381311437603146 0.0 0.0094099645922166575 0.0330251501442686 0.0 -0.00790299288267865 0.056953654948723065 0.0 0.051684267279060364 0.03976031950291059 0.0 0.017921644064232634 0.0673385145210742 0.0 -0.0090776684528553545 0.11637709139374686 0.0 0.0106969001442178 0.026237341549577693 0.0 -0.049540685433237974 -0.53897749939320994 0.0 0.026559361918717439 -0.47649350817604463 0.0 0.012681405997140793 0.046587139968153196 0.0 0.0096227247670105029 0.024156499596715428 0.0 0.02162038242314418 0.091545121798169982 0.0 0.018375846549143982 0.0393674859219348 0.0 -0.068701330561819485 -0.42531728771376948 0.0 -0.057008247616775948 0.049634405992244529 0.0 0.00041235722465860413 0.12970799884947998 0.0 -0.020676711240760537 0.22256930337828371 0.0 -0.091302014034752327 0.19808963918270378 0.0 -0.015274669852700429 -0.65317994099311283 0.0 0.016800467508947703 -0.58187286109742831 0.0 0.077475919094925821 0.19170737755954348 0.0 0.035610571257799095 -0.67444873039827935 0.0 0.0075628003454030202 0.099343511682141394 0.0 0.025931397291469482 -0.5044808661872866 0.0 -0.072434671646115334 0.15562852437117886 0.0 -0.010398093160600308 0.059492437952936655 0.0 0.036950798547664865 -0.035071640153942998 0.0 -0.052863358848116673 0.13287375902742721 0.0 -0.017524251933513122 0.11447051642982026 0.0 -0.026699301005619236 0.018876219331354749 0.0 -0.0096885982849335139 0.046920667744101752 0.0 -0.035855884604226063 0.090021503521112989 0.0 0.030983788773342902 0.061063783775585856 0.0 0.043190931280993938 0.085375436170819885 0.0 0.0048538510465222506 0.094362339243171223 0.0 -0.011716433227587683 0.12001241305223842 0.0 -0.015222871107956407 0.098474142679902274 0.0 -0.0083184134899443873 0.045904575161687 0.0 0.093146226253662673 0.090519325303456633 0.0 0.011181389488847102 0.089534602274496167 0.0 0.0070180653632033602 0.090009161617777805 0.0 -0.04147896577203404 0.11800242872412847 0.0 -0.0082375419300563524 0.066299681638792352 0.0 0.002173544923410365 0.087158151721153501 0.0 -0.032196762777275512 0.11769874451576937 0.0 -0.044634247647187208 0.027733475007857666 0.0 -0.019142857201249752 0.066296595336310521 0.0 0.043812159223664937 0.14104819386786302 0.0 -0.010184017166364134 0.14163763251484368 0.0 0.0085042797682949034 0.064952268995074447 0.0 0.020427793348469052 0.11581646988900074 0.0 -0.0010991003087962581 0.10720592763710265 0.0 0.090650357674244078 0.073188291737170619 0.0 0.11945572924032627 0.15293885608912644 0.0 0.017590420313704697 -0.4942262226217663 0.0 0.017483267064203334 -0.52173112701467794 0.0 -0.0078303821702207371 0.075492348934323925 0.0 -0.66086281386224921 0.10674938354467162 0.0 0.045219938170409604 0.053877823543796971 0.0 -0.03640566976158166 0.083582331720091219 0.0 -0.0081827102739681634 0.10450471056833222 0.0 0.015977316208006187 -0.56864393732980023 0.0 0.013552976107002901 0.14108084306059271 0.0 0.027696658849355293 0.028401990257865384 0.0 -0.064230392198471153 -0.55487119943455998 0.0 -0.03441134118755132 0.1193793993432018 0.0 0.025249208655020297 0.12914782921889484 0.0 -0.021891323529744655 -0.3875971040896522 0.0 0.076427690887362398 0.054481990037097805 0.0 -0.013438322401046393 0.032901444622367867 0.0 0.059038355930196462 0.011165550874307748 0.0 0.017484476578422031 0.05739999333704604 0.0 0.02130166977321854 0.025148455449658547 0.0 -0.043312836069050342 0.045213795175534671 0.0 -0.089637077364282447 -0.34145658875501955 0.0 -0.08543662440214006 0.12347613124541107 0.0 -0.081646277483696572 0.20330127200370596 0.0 -0.030928108754897876 0.22481431307145247 0.0 -0.040702812964293344 0.061017979374293374 0.0 -0.013642703574990395 -0.71293553644599406 0.0 0.058587054153339244 0.22368064022798043 0.0 0.00022050451588231934 0.095163878263611265 0.0 0.054138757589681008 0.20026556209439472 0.0 0.079301626823645721 0.033398434728786563 0.0 0.031416995306589715 0.14740778675822985 0.0 0.037707695776849459 0.048052724782553236 0.0 0.010512583655218788 -0.26548882274641294 0.0 0.020749016029741135 0.12862028446023593 0.0 -0.058166301605387521 0.075928301558004646 0.0 -0.014331842618664867 0.023576401241492628 0.0 -0.044704418081368401 -0.490523035779728 0.0 0.023635868001928267 0.11222771496117095 0.0 0.020707640090317281 0.079092637069036076 0.0 -0.0087562062388562012 0.071050802457594125 0.0 0.018725757372261533 0.13282228361240833 0.0 0.0052612939240844359 0.16644662952475298 0.0 -0.017236235662451804 0.040849463057715973 0.0 0.011767787956732598 0.097761952014722001 0.0 -0.012517925063224133 0.11313703135805095 0.0 -0.013813450306382813 0.088669886268000583 0.0 -0.016108127688051838 0.066400606680186408 0.0 0.021833880343133938 0.17007252102885628 0.0 -0.05716862784830079 -0.37813200524268509 0.0 -0.041311419031583113 -0.46193866149068108 0.0 -0.0074223672275810851 0.09183323541565451 0.0 0.0017838491000897183 0.094715699912250401 0.0 0.00063876137969266777 0.1199651815871329 0.0 0.080596824509825582 0.048310949363759736 0.0 0.037630672022998191 0.0082476818751385447 0.0 0.015427532956017254 0.038018558435621075 0.0 0.10423975039625122 0.013094361791685674 0.0 -0.47548748829806387 -0.033453864340078576 0.0 -0.092164280452907643 0.017811486823088307 0.0 -0.034004123505160272 0.10077759351513998 0.0 -0.015615211731976164 0.12874786552995993 0.0 0.0031670782609058978 0.016854346923911079 0.0 0.0052841054642368407 0.17311713567056558 0.0 0.013932340370574114 -0.4338292568422355 0.0 -0.0029902859888621749 0.12886840144062306 0.0 0.051613229661466517 0.1942277643473945 0.0 -0.074678415629002459 -0.62990057666175314 0.0 0.022564491043599699 -0.37383498548623706 0.0 -0.060316798408948769 0.11047599712371831 0.0 -0.0060312223415428523 0.039221917301586473 0.0 0.0037449623805614236 0.056159376462958405 0.0 -0.018168926312111248 0.064082090769058048 0.0 -0.051166827704803214 0.010471239064557658 0.0 -0.065678132562775327 0.12092500584724075 0.0 -0.073772060856849453 0.10540420682312812 0.0 -0.024082249237027634 -0.64564991089343626 0.0 -0.0064319137949877814 -0.68055923950365793 0.0 -0.05442179984576509 0.18196182124237417 0.0 0.045490722732690836 0.030821811686591705 0.0 0.092275294060215007 0.012942531064561936 0.0 0.0018436525419787964 0.041428518290776151 0.0 0.0090994798197533769 0.0042498322274764841 0.0 0.02649637774261708 -0.0037099072770637453 0.0 -0.51291627024956443 0.088067886350484542 0.0 -0.023841085639679405 0.10014291574581036 0.0 0.0049719612630752946 0.04319816676381516 0.0 -0.023329507481661238 0.13243392371386897 0.0 0.0070935495326053255 0.078036100684440307 0.0 0.045578530029545386 0.10779049647524595 0.0 -0.0073846919538284317 0.090224777220501484 0.0 -0.021165991741714005 0.14834926584686275 0.0 0.027057456294694693 0.0055367792644336888 0.0 0.017168352193490659 0.053184245755230418 0.0 0.022163761325553762 0.079516198883644917 0.0 0.0094374140251363217 0.11879309435122773 0.0 0.035608153233729789 0.096750774156110261 0.0 0.02444492043120311 0.05592468989567459 0.0 -0.015620748351895176 0.057056064971608852 0.0 -0.026356841243814128 0.10260180448145963 0.0 -0.04656431940835519 0.1050652491859681 0.0 0.08737707378609505 0.20627319243572428 0.0 -0.017743300718224164 0.032927329988538201 0.0 -0.0071242123651445791 0.1790047245569788 0.0 -0.049717232219405577 0.1598507208566495 0.0 0.06780669875211992 -0.85948980374483686 0.0 0.043937012328379932 0.097425051335070539 0.0 0.049069572120819693 -0.0015116187853551968 0.0 0.029889482136762097 0.026043011959684559 0.0 -0.049297708276882887 0.051270390301395616 0.0 -0.14567314795365255 0.011838424613985654 0.0 -0.037401796940698118 0.14378218027968015 0.0 -0.0057872494913093556 0.11678887387191675 0.0 -0.042434629903575993 0.010124503433224796 0.0 -0.00070542864080924694 0.076045718002676926 0.0 -0.023442046445182441 0.031978805716034009 0.0 -0.018611090873209307 0.12083568570443196 0.0 -0.0032908492554504301 0.16789197328509231 0.0 -0.017345668945803361 -0.51551804708310212 0.0 0.085171227086617313 -0.68064978581689917 0.0 0.079069840456816531 -0.51824476441174672 0.0 0.026102897237766997 0.082314410750986583 0.0 -0.0028165467906720587 -0.5015175998668876 0.0 -0.039513962413117137 -0.0017470639756918538 0.0 0.0015231288542112975 0.011129411811024253 0.0 -0.028416344119116338 0.14250230424965782 0.0 0.0046793485901952259 0.031523960563756059 0.0 -0.020948893786293311 0.059466061941047588 0.0 0.022884713439397658 0.055208010870962346 0.0 0.0525505544030858 0.1354723822381951 0.0 0.027465051059352763 0.016596290856265704 0.0 0.015237031471534448 -0.23139736839328146 0.0 </DataArray>
<DataArray Name="radii" format="ascii" type="Float32">1 1 1 1 1.4800000000000004 1 1 1 1 1 1.4800000000000004 1 1 1.5600000000000003 1 1 1 1 1 1 1 1 1.4800000000000004 1 1.4800000000000004 1.4800000000000004 1 1 1 1 1 1 1 1 1 1 1 1.4800000000000004 1 1 1 1 1 1 1 1 1 1 1.4800000000000004 1.4800000000000004 1 1 1 1 1 1.4800000000000004 1 1 1 1 1 1 1 1.4800000000000004 1 1 1 1 1.4800000000000004 1 1 1 1 1 1 1 1 1 1.4800000000000004 1.4800000000000004 1 1 1 1 1 1 1 1 1 1 1 1 1.4800000000000004 1 1 1.4800000000000004 1 1 1 1 1 1.4800000000000004 1 1 1 1 1 1 1.4800000000000004 1.4800000000000004 1 1.4800000000000004 1 1 1.4800000000000004 1.4800000000000004 1 1 1 1 1 1 1 1 1 1 1 1 1 1 1 1 1 1 1 1 1 1 1 1 1 1 1 1 1 1 1 1 1 1 1 1 1 1 1 1 1 1 1 1 1 1 1 1 1 1 1 1 1 1 1 1 1 1 1 1 1 1 1 1 1 1 1 1 1 1 1 1 1 1 1 1 1 1 1 1 1 1 1 1 1 1 1 1 1 1 1 1 1 1 1 1 1 1 1 1 1 1 </DataArray>
</PointData>
<CellData/>
</Piece>
</UnstructuredGrid>
</VTKFile>
