<?xml version="1.0" ?>
<VTKFile byte_order="LittleEndian" type="UnstructuredGrid" version="0.1">
<UnstructuredGrid>
<Piece NumberOfCells="0" NumberOfPoints="6">
<Points>
<DataArray NumberOfComponents="3" format="ascii" type="Float32">29.484617417198567 0.7 2 65.112544809990865 4.6781734347189348 2 68.010504920855681 0.7 2 70.767440546437172 4.4645728902755248 2 72.148297902424304 4.1499666280592802 2 74.397219365453907 0.7 2 </DataArray>
</Points>
<Cells>
<DataArray Name="connectivity" format="ascii" type="Int32">0</DataArray>
<DataArray Name="offsets" format="ascii" type="Int32">0</DataArray>
<DataArray Name="types" format="ascii" type="UInt8">1</DataArray>
</Cells>
<PointData>
<DataArray Name="Points" NumberOfComponents="3" format="ascii" type="Float32">29.484617417198567 0.7 2 65.112544809990865 4.6781734347189348 2 68.010504920855681 0.7 2 70.767440546437172 4.4645728902755248 2 72.148297902424304 4.1499666280592802 2 74.397219365453907 0.7 2 </DataArray>
<DataArray Name="forces" NumberOfComponents="3" format="ascii" type="Float32">0.0055190158928539214 -0.0050446763334940775 0.0 -0.0012421423783095615 0.00061255871937447711 0.0 0.026854893578065166 -0.029265753322417581 0.0 -0.0068919749351220392 0.020808037918314162 0.0 0.0059873828157649203 -0.0024288661670407753 0.0 0.0 0.0 0.0 </DataArray>
<DataArray Name="radii" format="ascii" type="Float32">0.7 0.7 0.7 0.7 0.7 0.7 </DataArray>
</PointData>
<CellData/>
</Piece>
</UnstructuredGrid>
</VTKFile>
