<?xml version="1.0" ?>
<VTKFile byte_order="LittleEndian" type="UnstructuredGrid" version="0.1">
<UnstructuredGrid>
<Piece NumberOfCells="0" NumberOfPoints="144">
<Points>
<DataArray NumberOfComponents="3" format="ascii" type="Float32">3.0844990761217779 8.0804826424009377 2 6.755803398895214 1.836187478341718 2 18.214929676576819 10.603182536271634 2 20.755825906180501 1.2 2 24.466955224160909 1.9515268806161166 2 38.370893887431443 9.5979608383284276 2 40.861052733658489 13.201160240984962 2 46.223857052955189 5.2149816512281486 2 50.307219825783982 2.6967267606979757 2 54.470644794592168 9.7603076504909385 2 57.150594476271948 7.0487561104074974 2 59.950623900289123 8.6065873874274459 2 83.095663740205111 4.7016428436880089 2 86.838385507082634 8.8580597579536011 2 90.377743094023245 7.7146974102350026 2 91.490563289897892 10.904391589864805 2 93.2729898778028 11.890460410516548 2 98.8 1.2 2 3.1200658176307647 2.4054828523930039 2 8.6724725115549717 9.7751634034446333 2 18.892949647180082 4.8475770920697068 2 22.367091219112908 11.818369949485087 2 23.758277130354024 7.935333690492814 2 37.094096412703081 1.2 2 39.882812580518923 1.2 2 45.858843475657814 6.7491834809458862 2 47.871412218881915 12.383964234407863 2 51.626864352025329 3.2415137986893003 2 53.217202327149025 2.6556385296389595 2 55.047764626497482 14.178978915107081 2 58.293971416738017 1.2 2 83.167317920279686 7.1583016043847358 2 86.155653881865078 4.5575478643507346 2 87.731835248818257 4.9408086723573064 2 90.652004824675714 1.2 2 95.45944800524498 4.8375388351483126 2 98.8 7.3250072957974579 2 3.3417923099054452 12.213209357560185 2 6.8841034814694897 4.5278466942702371 2 18.600086056696608 12.656529501248261 2 22.509132252844211 2.7967852214554325 2 35.544703400380932 6.926861967360689 2 38.140362717320549 11.478747874773402 2 46.009441480042142 1.2 2 51.860977510618248 5.2814106066325248 2 51.177978330579506 10.400722225861225 2 52.596518996549491 8.8341909484624335 2 55.583144208121475 6.3921042151654692 2 57.743153126151867 5.5393623696774181 2 83.821145126131412 1.2 2 85.320207949336819 8.2803529536928391 2 89.579355550677391 12.06686667373779 2 91.844154658953286 8.8509280578010046 2 94.788483110969054 13.389786598638253 2 98.8 5.8301749852916593 2 2.9803038594757729 4.6278636060576472 2 6.7074021621545565 13.238595816950554 2 17.273704355085425 2.3638228560545325 2 22.374006888571369 14.151779827989023 2 20.705052882156444 7.5123150292276879 2 35.819229422503994 5.1675944965813843 2 39.376196974732942 6.2049518932042442 2 47.128642534474118 10.197236835806136 2 51.953336059077628 12.661203532964423 2 53.122753872021455 4.2647960479331433 2 55.525854625666597 1.2 2 53.061605878403917 11.000122998569806 2 59.321915675895141 4.9270085277823865 2 84.285729961096919 10.760159271705012 2 86.540695121548268 1.2 2 88.978413230801806 2.7970698692831966 2 89.273605906370179 4.5725153681767665 2 95.145443306946163 3.3710429733792702 2 98.8 11.176171578706468 2 19.786278308184759 9.2004579585254422 2 23.493623826782674 1.2 2 36.448068471681516 10.148864998056471 2 42.944986905276387 13.726244566804235 2 46.561525016791606 2.9021582715133576 2 50.837441026120153 1.2 2 51.155004829588606 7.1206033404580324 2 56.288730424243596 10.491518511468103 2 56.089915875574448 8.5231155332047432 2 59.03542244313936 6.9256980179261802 2 82.395146253543174 5.9552610570052664 2 88.580779089355744 8.3954748150099547 2 89.912741288842582 9.7821536940154932 2 91.505755042335039 13.192271876442049 2 93.500266146790366 9.8359282711403271 2 98.8 2.7761135286724214 2 7.0697147733004337 10.941190550721375 2 18.440702163767128 3.3418427781985121 2 24.11155044276941 12.973897735463387 2 23.442081904482286 9.897279581862751 2 34.974363861547445 3.0252242593888061 2 39.465770993048459 2.7468735666658541 2 47.163358894713163 8.391582480206484 2 49.852542033834489 11.900626947239942 2 52.274980359236515 1.2 2 53.97642975011869 1.2 2 56.933944311164758 12.81152533785912 2 58.751410285672179 2.7457832083040223 2 81.958340780096492 8.3513419878580919 2 85.995261552929975 6.2952463111579195 2 87.521734542055256 3.1126367896548266 2 90.43315282283838 3.4327070931875192 2 94.337428206850788 6.1901541797054325 2 98.8 9.1749193997635565 2 4.130819914775925 9.859685084260887 2 6.247421622780907 3.2821803393149525 2 17.370655218802892 14.49428551668295 2 22.55169201705127 6.5294055899039005 2 22.07969513504689 1.2 2 36.841099934084859 8.2936659454750892 2 38.681254073694873 13.617193900031284 2 47.518650989142529 1.2 2 50.529417128896526 8.5961020492695095 2 52.915343205916415 6.8219717098094952 2 54.389047274642138 7.8114565238315166 2 57.952590748610938 3.7594642815504558 2 84.369674898032258 3.0381338143826206 2 87.237957340231546 6.9301716748164441 2 88.079313073266775 10.532467572055848 2 92.110938403015339 6.8252914109432448 2 96.967591018406466 14.17595692497464 2 98.8 4.2967632598751182 2 2.9616491552731152 6.2637328309314118 2 8.8110489119942628 14.279705486296578 2 17.926467928160804 1.2 2 20.354409082742919 13.642148152620877 2 22.056245195872602 8.368014312264247 2 34.546554548330221 4.7912577280609217 2 39.278884476140483 4.1314795611123767 2 45.883640382033214 11.648887381797723 2 50.541937740113113 14.361732457109506 2 54.086612978054681 5.6553100170436696 2 54.981306976434269 2.8173200300578043 2 54.850619714282992 12.007719660282948 2 83.810534319783201 8.886792232826549 2 87.867423781820364 1.2 2 89.367137522613589 1.2 2 88.93121610469602 6.4723522515288332 2 94.40641749472924 1.2 2 97.043926018825815 12.044963923424421 2 </DataArray>
</Points>
<Cells>
<DataArray Name="connectivity" format="ascii" type="Int32">0</DataArray>
<DataArray Name="offsets" format="ascii" type="Int32">0</DataArray>
<DataArray Name="types" format="ascii" type="UInt8">1</DataArray>
</Cells>
<PointData>
<DataArray Name="Points" NumberOfComponents="3" format="ascii" type="Float32">3.0844990761217779 8.0804826424009377 2 6.755803398895214 1.836187478341718 2 18.214929676576819 10.603182536271634 2 20.755825906180501 1.2 2 24.466955224160909 1.9515268806161166 2 38.370893887431443 9.5979608383284276 2 40.861052733658489 13.201160240984962 2 46.223857052955189 5.2149816512281486 2 50.307219825783982 2.6967267606979757 2 54.470644794592168 9.7603076504909385 2 57.150594476271948 7.0487561104074974 2 59.950623900289123 8.6065873874274459 2 83.095663740205111 4.7016428436880089 2 86.838385507082634 8.8580597579536011 2 90.377743094023245 7.7146974102350026 2 91.490563289897892 10.904391589864805 2 93.2729898778028 11.890460410516548 2 98.8 1.2 2 3.1200658176307647 2.4054828523930039 2 8.6724725115549717 9.7751634034446333 2 18.892949647180082 4.8475770920697068 2 22.367091219112908 11.818369949485087 2 23.758277130354024 7.935333690492814 2 37.094096412703081 1.2 2 39.882812580518923 1.2 2 45.858843475657814 6.7491834809458862 2 47.871412218881915 12.383964234407863 2 51.626864352025329 3.2415137986893003 2 53.217202327149025 2.6556385296389595 2 55.047764626497482 14.178978915107081 2 58.293971416738017 1.2 2 83.167317920279686 7.1583016043847358 2 86.155653881865078 4.5575478643507346 2 87.731835248818257 4.9408086723573064 2 90.652004824675714 1.2 2 95.45944800524498 4.8375388351483126 2 98.8 7.3250072957974579 2 3.3417923099054452 12.213209357560185 2 6.8841034814694897 4.5278466942702371 2 18.600086056696608 12.656529501248261 2 22.509132252844211 2.7967852214554325 2 35.544703400380932 6.926861967360689 2 38.140362717320549 11.478747874773402 2 46.009441480042142 1.2 2 51.860977510618248 5.2814106066325248 2 51.177978330579506 10.400722225861225 2 52.596518996549491 8.8341909484624335 2 55.583144208121475 6.3921042151654692 2 57.743153126151867 5.5393623696774181 2 83.821145126131412 1.2 2 85.320207949336819 8.2803529536928391 2 89.579355550677391 12.06686667373779 2 91.844154658953286 8.8509280578010046 2 94.788483110969054 13.389786598638253 2 98.8 5.8301749852916593 2 2.9803038594757729 4.6278636060576472 2 6.7074021621545565 13.238595816950554 2 17.273704355085425 2.3638228560545325 2 22.374006888571369 14.151779827989023 2 20.705052882156444 7.5123150292276879 2 35.819229422503994 5.1675944965813843 2 39.376196974732942 6.2049518932042442 2 47.128642534474118 10.197236835806136 2 51.953336059077628 12.661203532964423 2 53.122753872021455 4.2647960479331433 2 55.525854625666597 1.2 2 53.061605878403917 11.000122998569806 2 59.321915675895141 4.9270085277823865 2 84.285729961096919 10.760159271705012 2 86.540695121548268 1.2 2 88.978413230801806 2.7970698692831966 2 89.273605906370179 4.5725153681767665 2 95.145443306946163 3.3710429733792702 2 98.8 11.176171578706468 2 19.786278308184759 9.2004579585254422 2 23.493623826782674 1.2 2 36.448068471681516 10.148864998056471 2 42.944986905276387 13.726244566804235 2 46.561525016791606 2.9021582715133576 2 50.837441026120153 1.2 2 51.155004829588606 7.1206033404580324 2 56.288730424243596 10.491518511468103 2 56.089915875574448 8.5231155332047432 2 59.03542244313936 6.9256980179261802 2 82.395146253543174 5.9552610570052664 2 88.580779089355744 8.3954748150099547 2 89.912741288842582 9.7821536940154932 2 91.505755042335039 13.192271876442049 2 93.500266146790366 9.8359282711403271 2 98.8 2.7761135286724214 2 7.0697147733004337 10.941190550721375 2 18.440702163767128 3.3418427781985121 2 24.11155044276941 12.973897735463387 2 23.442081904482286 9.897279581862751 2 34.974363861547445 3.0252242593888061 2 39.465770993048459 2.7468735666658541 2 47.163358894713163 8.391582480206484 2 49.852542033834489 11.900626947239942 2 52.274980359236515 1.2 2 53.97642975011869 1.2 2 56.933944311164758 12.81152533785912 2 58.751410285672179 2.7457832083040223 2 81.958340780096492 8.3513419878580919 2 85.995261552929975 6.2952463111579195 2 87.521734542055256 3.1126367896548266 2 90.43315282283838 3.4327070931875192 2 94.337428206850788 6.1901541797054325 2 98.8 9.1749193997635565 2 4.130819914775925 9.859685084260887 2 6.247421622780907 3.2821803393149525 2 17.370655218802892 14.49428551668295 2 22.55169201705127 6.5294055899039005 2 22.07969513504689 1.2 2 36.841099934084859 8.2936659454750892 2 38.681254073694873 13.617193900031284 2 47.518650989142529 1.2 2 50.529417128896526 8.5961020492695095 2 52.915343205916415 6.8219717098094952 2 54.389047274642138 7.8114565238315166 2 57.952590748610938 3.7594642815504558 2 84.369674898032258 3.0381338143826206 2 87.237957340231546 6.9301716748164441 2 88.079313073266775 10.532467572055848 2 92.110938403015339 6.8252914109432448 2 96.967591018406466 14.17595692497464 2 98.8 4.2967632598751182 2 2.9616491552731152 6.2637328309314118 2 8.8110489119942628 14.279705486296578 2 17.926467928160804 1.2 2 20.354409082742919 13.642148152620877 2 22.056245195872602 8.368014312264247 2 34.546554548330221 4.7912577280609217 2 39.278884476140483 4.1314795611123767 2 45.883640382033214 11.648887381797723 2 50.541937740113113 14.361732457109506 2 54.086612978054681 5.6553100170436696 2 54.981306976434269 2.8173200300578043 2 54.850619714282992 12.007719660282948 2 83.810534319783201 8.886792232826549 2 87.867423781820364 1.2 2 89.367137522613589 1.2 2 88.93121610469602 6.4723522515288332 2 94.40641749472924 1.2 2 97.043926018825815 12.044963923424421 2 </DataArray>
<DataArray Name="forces" NumberOfComponents="3" format="ascii" type="Float32">-0.048684163776086253 0.22291336668507766 0.0 0.0303352479075924 0.015405396155065754 0.0 -0.011118008338272534 0.20904127369593045 0.0 0.0045119496761273498 -0.80949881500048648 0.0 -0.023965355168560104 0.054622490847650917 0.0 0.059892342742944416 0.25842449083378077 0.0 -0.0088083669363949874 0.25512872562849437 0.0 0.011830122510279671 0.067417232427447391 0.0 -0.0095600854217692821 0.086377912425575687 0.0 -0.027971623360094351 0.17803482759055189 0.0 0.0053318566378367516 0.14738513816976417 0.0 -0.0066944857545216396 0.16145714631491886 0.0 -0.028819125710563276 0.094876950364921442 0.0 0.018060839207603846 0.23089438784871186 0.0 0.008702854573896357 0.1386961917090502 0.0 0.036723881072279391 0.2704273087343978 0.0 -0.0043824601723816414 0.3077549707166618 0.0 0.87501063792145706 -0.82529798109588692 0.0 -0.014028973284139878 0.100553291203691 0.0 0.002839838816822704 0.19292725712047215 0.0 0.038820986919294143 0.078821370862526594 0.0 -0.0061809213453186684 0.28081949069861356 0.0 -0.028418662281894491 0.15663764112382286 0.0 0.046457537349020583 -0.77647492467850165 0.0 0.061174097463433275 -1.1266234963196848 0.0 0.074437830720716691 0.090557361102531431 0.0 -0.058093404571835427 0.27074510912596383 0.0 0.0095251796252411314 0.028570542267076227 0.0 0.017558353514004699 0.078023413570254385 0.0 -0.037990920523644091 0.26396949348324539 0.0 -0.085316398032456636 -0.75008346963568318 0.0 0.050151421291024512 0.21197613664392501 0.0 -0.022128638715085094 0.11746176847907475 0.0 -0.01295769650682782 0.10770127430906523 0.0 -0.0097813600063151873 -0.77750606211959128 0.0 0.040115032116324778 0.19070020162961815 0.0 0.71849532103376623 0.14957790084644107 0.0 -0.054961318609227615 0.24973320806835669 0.0 -0.064307218889591289 0.095891737897250501 0.0 -0.016647375680520937 0.25406643640597687 0.0 -0.0051416882790749352 0.054294483266440985 0.0 0.02472091875382398 0.1146947798444124 0.0 0.0069454761776548413 0.25796318391067363 0.0 0.019614596535506235 -1.1084724577498533 0.0 0.041080745212117742 0.10529943965254765 0.0 -0.028559810835015825 0.27121873124376711 0.0 -0.05294501650109476 0.15301777062836699 0.0 0.0093751693866224728 0.15322854450129203 0.0 -0.028793804891599439 0.094732636505557577 0.0 0.028000232835013267 -0.8475949052416949 0.0 0.010159085320206929 0.11832374331099554 0.0 0.033029096485814174 0.2311466803342061 0.0 0.0037403658460533826 0.17014386681226473 0.0 0.10308282693201822 0.20117728652685274 0.0 0.31798407362595593 0.099038847109374939 0.0 -0.096745335622877099 0.039381115946149084 0.0 0.021161811972362138 0.22405332735722905 0.0 0.076147098613652653 0.09738060244114545 0.0 0.059505936700083251 0.31750595965015777 0.0 -0.055111344372488054 0.11120707621737309 0.0 0.024599187383766541 0.1162341324901332 0.0 -0.0014227190124840305 0.14567994177662855 0.0 -0.0048326832152500443 0.25967503625007715 0.0 0.058479791006560339 0.25764180785858271 0.0 0.0052126078139229926 0.09912201633296755 0.0 -0.077550543117611365 -0.98222043692057814 0.0 -0.028782958101178535 0.14845275318263629 0.0 0.0027268358457787079 0.11621439853483539 0.0 -0.01128356290422225 0.28559431607829783 0.0 0.0099687945207072026 -0.84828971240103734 0.0 0.061921883979762449 0.060693067525845246 0.0 0.019384043677710211 0.1290884976520757 0.0 0.00023373352247801904 0.094187928265009602 0.0 0.47888592813695369 0.26119594395452583 0.0 -0.001089813213935073 0.24586212698185 0.0 -0.016276384425633061 -1.1614845640339229 0.0 0.017928663865276695 0.14638732080877825 0.0 0.0089269045443568056 0.19435304612369614 0.0 -0.045846212093270666 0.022370686862545508 0.0 -0.01395477224126096 -0.97055570125831692 0.0 -0.1108950306784208 0.12546880174471059 0.0 -0.050008046817765689 0.21972851466628229 0.0 -0.021184950304459993 0.17717463918321283 0.0 -0.033074002214102505 0.14004593441592297 0.0 0.011508480390755083 0.17340942078771029 0.0 0.045893874006254193 0.21777498162117825 0.0 0.063296825184716909 0.21426914782104309 0.0 -0.01955234982214149 0.32602712423685704 0.0 -0.020240473245642904 0.22256593367462429 0.0 0.84072269584981074 0.031351443996062461 0.0 -0.025918210726640481 0.19768735891653152 0.0 0.0059701143350845629 0.097901577027117104 0.0 0.029274925845183236 0.22933677158199739 0.0 -0.038660944068479169 0.21378248233843203 0.0 -0.011656104806620382 0.087644323809123348 0.0 -0.035856160709673179 0.066570132980519114 0.0 -0.0041718251353122585 0.2008258551311084 0.0 -0.013508824409781343 0.29588441894988637 0.0 -0.019337164116003391 -0.81165846050656898 0.0 -0.064312665633004584 -1.1002026316848261 0.0 -0.048192960639160315 0.23356034787984048 0.0 -0.0076322381700923425 0.056603193085575015 0.0 0.020081517617980049 0.19949190823355892 0.0 0.042475663543883546 0.12645988169332151 0.0 0.053237438458329178 0.068113245027526692 0.0 0.029093436712028908 0.10505217873916359 0.0 0.0052925760517099629 0.10823053626541912 0.0 0.62041712942813132 0.20213978129023924 0.0 0.063803713421580643 0.15276479800784959 0.0 0.014897153530949891 -0.011466986222954612 0.0 -0.082278257983569733 0.23295025719222154 0.0 0.01716493816958814 0.1310246802130775 0.0 -0.00486695260330057 -0.85496127651932274 0.0 0.029156810918695042 0.15583698330746848 0.0 -0.0055947259238373348 0.27569347478239814 0.0 0.045583862700298239 -1.1307016913860417 0.0 -0.0022498978543782355 0.24351356625188114 0.0 -0.084797852553263997 0.1563783826412618 0.0 -0.041630955202312671 0.15626537369329155 0.0 -0.0057364583588946916 0.10966083312175368 0.0 0.068002874428172544 0.058833001730061216 0.0 0.041141882259224438 0.20647577418243299 0.0 0.043839390674396531 0.2281114632596532 0.0 0.053623821860887669 0.14105494012129954 0.0 0.066593573313083174 0.29851766476900304 0.0 0.84937982013401281 0.05185656219564011 0.0 0.028677145724834152 0.14599642448505304 0.0 -0.010365668449174007 0.24310918017171129 0.0 -0.013623659316406189 -1.1893471748963362 0.0 0.038882080304048931 0.25273202426217095 0.0 -0.05554245472288713 0.14713710494818555 0.0 0.038227886086451668 0.061324681613321108 0.0 0.021257357327033932 0.095894563967785729 0.0 -0.087196197742437614 0.24374543773687377 0.0 -0.122083132042419 0.15035118503265268 0.0 0.012875383830542608 0.16964953989408701 0.0 0.014915815634468329 0.053595858245494482 0.0 -0.067358311752181543 0.23814470192111403 0.0 0.027195631351016519 0.26801296129278318 0.0 -0.0049523961811785977 -0.83341962543284964 0.0 -0.03684858263436297 -0.73536952042696102 0.0 -0.0034055413542302126 0.1353873862349996 0.0 0.017788854004370136 -0.75558027209779555 0.0 -0.079998977615281297 0.26386359559812445 0.0 </DataArray>
<DataArray Name="radii" format="ascii" type="Float32">1.2 1 1.2 1.2 1.2 1.2 1.2 1.2 1.2 1.2 1.2 1.2 1.2 1.2 1.2 1.2 1.2 1.2 1.2 1.2 1.2 1.2 1.2 1.2 1.2 1.2 1.2 1.2 1.2 1.2 1.2 1.2 1.2 1.2 1.2 1.2 1.2 1.2 1.2 1.2 1.2 1.2 1.2 1.2 1.2 1.2 1.2 1.2 1.2 1.2 1.2 1.2 1.2 1.2 1.2 1.2 1.2 1.2 1.2 1.2 1.2 1.2 1.2 1.2 1.2 1.2 1.2 1.2 1.2 1.2 1.2 1.2 1.2 1.2 1.2 1.2 1.2 1.2 1.2 1.2 1.2 1.2 1.2 1.2 1.2 1.2 1.2 1.2 1.2 1.2 1.2 1.2 1.2 1.2 1.2 1.2 1.2 1.2 1.2 1.2 1.2 1.2 1.2 1.2 1.2 1.2 1.2 1.2 1.2 1.2 1.2 1.2 1.2 1.2 1.2 1.2 1.2 1.2 1.2 1.2 1.2 1.2 1.2 1.2 1.2 1.2 1.2 1.2 1.2 1.2 1.2 1.2 1.2 1.2 1.2 1.2 1.2 1.2 1.2 1.2 1.2 1.2 1.2 1.2 </DataArray>
</PointData>
<CellData/>
</Piece>
</UnstructuredGrid>
</VTKFile>
