<?xml version="1.0" ?>
<VTKFile byte_order="LittleEndian" type="UnstructuredGrid" version="0.1">
<UnstructuredGrid>
<Piece NumberOfCells="0" NumberOfPoints="1399">
<Points>
<DataArray NumberOfComponents="3" format="ascii" type="Float32">25.17271197759495 0.7 2 64.345439194662902 13.006877231209572 2 66.834982381640074 0.7 2 72.662422224126217 9.970422567209809 2 71.966475826168164 7.8716108292533749 2 74.348931548335941 0.7 2 14.702034909006068 6.8430939661813213 2 32.110040671399112 10.88430696553432 2 72.436925680751671 8.343477724801712 2 67.196470035009696 8.1947716485933739 2 28.131830127446982 3.500497057762086 2 71.631861525723437 4.9146145970383639 2 71.094496457877113 6.6743656114773637 2 76.929696966509937 4.7678870424271178 2 81.036015752275446 11.212817951767732 2 10.546981697782506 9.0343216237683617 2 27.241719414253517 10.476889148848562 2 30.783025505481973 9.5780442451312204 2 40.934465947392027 7.2080207138735028 2 72.225964959734398 9.0761202524418998 2 72.834446442090965 9.3784173697325617 2 77.147508803476569 7.034698600287034 2 77.977397252530054 0.7 2 28.843454237302414 3.508837343166519 2 61.029830628724731 4.4859586574052468 2 64.280184181011762 9.8770525043471498 2 69.259773738628155 7.9933383596202709 2 75.648774929525743 12.256195940071754 2 77.823099108397216 7.1089212348286921 2 10.622136259539923 4.0616034402994057 2 13.70181882130823 11.40192472107427 2 27.671979692575775 9.7838479264985381 2 30.450131579204704 6.3746874568758853 2 35.446858534299913 8.8647195263133334 2 62.928941571355942 3.893546968383232 2 66.401792317487192 0.7 2 68.531268847181408 9.1627871654138069 2 75.122996039747875 11.794110519429458 2 10.091296612502857 9.6508350573130333 2 15.545033024458293 11.599541660110274 2 23.854240864956047 10.788016383640381 2 30.924860329763124 2.4336562372097652 2 61.228952759447537 10.203180930854904 2 67.685183065776201 3.3748756966211029 2 63.42659084770937 9.6599942746290335 2 71.528056751457697 5.4693689131036738 2 74.719455979982612 1.6934946615224606 2 80.277335630155065 11.532759754203973 2 78.20040728764755 2.2709887930078505 2 13.940683041371761 0.7 2 12.568579214692926 9.1246386688837049 2 25.718089444568218 9.0893081760143737 2 30.264013856526635 6.9702987911243159 2 31.417905675623192 6.4731257577322863 2 34.710501208184965 8.6631698309764342 2 40.919091317767531 7.8422951036830399 2 44.842525196180873 6.4179309789303876 2 61.862092975210963 3.5240529187693164 2 62.49328608142811 1.7853798430745129 2 72.425858273318553 7.1736784332950663 2 74.469774932588635 11.203902634460938 2 79.438032126991459 3.8026131286914033 2 81.918986255027761 10.647473715580198 2 17.013759397172901 3.7374552528884193 2 27.246341969331894 3.7760578114859786 2 29.309777231958307 4.0813357886717752 2 41.989541994071359 5.6029833305247081 2 62.416847606528904 9.7541390859938364 2 68.50798560346675 8.2159071132643202 2 66.006588777167778 1.5394263293835888 2 77.623334973195412 7.7987077939600677 2 9.7811423261626729 4.3260076159388632 2 14.503226303542204 0.7 2 17.857072645237974 3.8291391825699495 2 28.459757711807324 4.1214858006538639 2 28.733459328666854 6.9034697869365038 2 63.078883512763618 3.0115438217538859 2 66.521036601686177 2.7441944651224608 2 74.009990102224322 2.4511397488955331 2 78.394206416228243 0.7 2 7.2038230208932026 5.2559990218081571 2 14.533632175940332 6.10774811053225 2 30.483893002213758 2.8368054079440355 2 31.712192666244025 4.872390505963442 2 44.357428716356999 6.9584839127718228 2 62.489674799409592 9.1033254257171716 2 69.739353785098075 6.1597221278584993 2 68.227545719465255 11.834585967691288 2 70.440796490103011 6.0257775124844928 2 70.920440335880414 4.3937077363476602 2 76.284732185203893 4.591268055372729 2 80.472235362675789 10.836219634513377 2 6.9209532486309131 0.7 2 9.9791248944200941 3.8425748375528852 2 13.690871755773538 6.1154750937349389 2 15.831216004577907 12.484228878934942 2 23.394504949973935 7.3113051573430994 2 30.874418222663362 6.8392665543321547 2 41.748763744084847 4.9088928698150234 2 62.528309113492334 3.2820832190663305 2 62.590882507893014 0.7 2 76.708697175545225 5.4192500640542791 2 75.675165920841479 11.441119453650487 2 78.820663024971438 0.7 2 81.340814351270311 10.381068694776971 2 6.6753028682970239 5.9418505714599643 2 13.877507117331467 4.9072045811770959 2 27.502680014370039 4.3769265149162484 2 36.728158812069829 0.7 2 41.133619897115942 4.9894807526980793 2 63.470588429263415 7.774910829174277 2 69.223742198001787 8.7237677077580873 2 69.215847312775651 2.715912984879234 2 73.115441706546093 3.3368177579600502 2 74.792120551537593 0.7 2 78.0241959255099 5.1226511217735107 2 81.592036630672553 2.42278285724738 2 7.9082208923851978 0.7 2 13.615531442471012 2.3566123608699967 2 12.670865214279793 12.0136964018479 2 15.380366549460506 6.5181432433745341 2 23.161042865486479 2.9879677277837731 2 28.423904431185058 6.3946226566647937 2 64.075835401315274 3.758591323753115 2 64.342300064328171 2.8611368455735895 2 72.679798070185115 10.684986772970602 2 71.767972385412051 7.329028381001164 2 81.929426079536952 0.7 2 10.54700250395018 4.9592213776174336 2 14.122480953501698 6.6738048003965229 2 31.293620722008715 3.2884686408515895 2 31.796797498616375 3.8806984544735572 2 40.801362431379609 0.7 2 42.830274868064357 4.4746617005745852 2 62.478110872907116 8.3855103644209201 2 66.945150062715058 3.1059714659339877 2 70.934229555693591 5.0068835186346723 2 70.30087936169754 4.1449348812967788 2 75.375893773294379 3.7406594391721883 2 78.859443523884877 7.8795634900855172 2 79.844371906000546 4.3262175128827867 2 93.364257858439188 6.627238329444646 2 13.827413403973672 7.3755425312747871 2 31.266281068288841 8.4713169830312456 2 75.885197978829581 6.9700435698351226 2 73.918782479490361 9.5461579534092476 2 75.696694635076241 4.3193008144491953 2 26.579843731976712 3.0846012293174376 2 63.153744204041729 9.0307230863750103 2 66.303042946705389 8.7457945844684435 2 77.385630005616136 5.3359432361050798 2 11.970859961775655 2.7463468176532384 2 28.223309737280818 9.8610256097040381 2 64.713315357987142 5.3879763039900661 2 64.083476202929489 4.424286090802596 2 9.4069817079891553 9.6466927985770212 2 12.608413012637889 10.605619879647261 2 33.257356701121182 5.0907630964320143 2 60.579816806860194 4.8849188836419239 2 69.806235057464704 6.9827959416670273 2 70.781628499553634 5.4909366780421252 2 74.150369373062631 3.1459665209624177 2 79.485210580277283 8.0514936561750705 2 5.9092800246555859 8.838329558870603 2 8.9623558675326596 0.7 2 15.330171890421902 7.1486712844358147 2 20.018748533123798 5.5024578713571346 2 26.252680787068041 6.8610822845863213 2 33.263372384758704 14.045992304706186 2 40.228424645696201 8.2789157311170118 2 61.532177799898392 11.296076527867346 2 61.327573348298969 3.8788253514748035 2 66.015332844562053 0.7 2 67.688823479515548 15.388998898742877 2 69.987876882066644 12.774925268433071 2 80.995639085078835 6.8157744273926406 2 5.9810782852102626 7.9494491144920261 2 18.003759794759453 4.4788199635219135 2 21.107052649815291 2.7559024825596108 2 29.894978885805408 2.9147066937677799 2 34.830423292196983 0.7 2 39.004625238453542 4.7048547508252287 2 45.998029457168457 2.4504286574677261 2 48.530429880391637 4.2234908139045091 2 65.246275145935684 18.414286124924192 2 68.801775274253899 0.7 2 73.967260809371027 1.6298588736230712 2 78.906335368984756 12.311100299624718 2 76.864172520887792 0.7 2 83.106432857892585 0.7 2 7.5389320457383127 4.0701673001493468 2 16.600154629588417 7.1444041299684065 2 23.314073672653873 4.2909494534680803 2 27.498035118180887 11.567557528752145 2 32.998483139351102 10.933018216468183 2 41.995066295795567 11.779040506136212 2 50.948931034912718 7.0082729404055479 2 59.028750771689324 12.042260845814893 2 62.570094732365099 10.947889650417114 2 67.19393332315596 11.943830848127689 2 72.005821447586072 9.675727417227602 2 74.113518315779643 7.3917664051377097 2 73.911212976283252 10.16089789209804 2 82.439567707342547 1.6343692051989351 2 3.8933825007826539 4.7125711418688869 2 9.6807284655499881 10.373635881591381 2 20.203270564781263 4.7282680284720104 2 29.935284113716552 2.2768795705572513 2 38.682239228767926 4.1272447859888484 2 40.307349772072513 0.7 2 45.852298475452294 3.209910729244823 2 49.019676046900635 3.488179192253424 2 59.599867875892961 0.7 2 66.519022877664057 12.982043244598286 2 69.573885077205333 0.7 2 82.191788678612141 2.4724731266819147 2 93.492276068973339 3.5711751380135661 2 1.8493090375338235 10.370794968412875 2 4.0136439459121727 6.7203390229261197 2 9.3464873379603617 3.4494779128847557 2 11.207173827948296 3.6646286257107774 2 15.412456493084374 10.674876054190618 2 18.125041744361415 9.7321516008144826 2 27.480745799684488 6.6045650273096985 2 27.91484496281138 10.887037157133905 2 32.089083225554461 14.823795524780593 2 43.537689674273103 11.95633502625876 2 58.805867593806035 10.627448177928368 2 62.623901455738512 2.6169918401669454 2 63.837350066234663 3.1242545998412621 2 71.726056773168139 8.6175544456056326 2 72.005655037357926 10.410563327946646 2 92.894393446028332 3.7022228427161159 2 94.42222543467733 7.4853485343154915 2 0.7 3.7653334570740804 2 3.2732533506176718 0.7 2 7.5080143598410114 11.789993919095416 2 14.314013142175186 2.3793102198676226 2 34.231898551412797 17.78697720596103 2 25.869800770771921 0.7 2 35.551599414413268 1.8606143754824997 2 36.278725021294498 2.015625487814642 2 45.120250359938112 3.0298086074645711 2 47.333143261202189 8.8446585277788596 2 66.86772748413803 2.1519913399459645 2 73.918934700278157 0.7 2 79.380914531360631 11.383104750072446 2 76.100017335657483 3.085235934332657 2 82.107622647174082 3.0422271819149223 2 95.08158041415895 8.1740857724011473 2 96.182628914281622 2.873239189407502 2 0.7 9.6395667052139764 2 6.5164803663901782 9.0017953486718785 2 10.023383346589588 5.1621594647531461 2 10.48140661353052 13.913896894566021 2 16.311858406788517 6.5649750622969751 2 23.091126745081407 6.
[...]
<PointData>
<DataArray Name="Points" NumberOfComponents="3" format="ascii" type="Float32">25.17271197759495 0.7 2 64.345439194662902 13.006877231209572 2 66.834982381640074 0.7 2 72.662422224126217 9.970422567209809 2 71.966475826168164 7.8716108292533749 2 74.348931548335941 0.7 2 14.702034909006068 6.8430939661813213 2 32.110040671399112 10.88430696553432 2 72.436925680751671 8.343477724801712 2 67.196470035009696 8.1947716485933739 2 28.131830127446982 3.500497057762086 2 71.631861525723437 4.9146145970383639 2 71.094496457877113 6.6743656114773637 2 76.929696966509937 4.7678870424271178 2 81.036015752275446 11.212817951767732 2 10.546981697782506 9.0343216237683617 2 27.241719414253517 10.476889148848562 2 30.783025505481973 9.5780442451312204 2 40.934465947392027 7.2080207138735028 2 72.225964959734398 9.0761202524418998 2 72.834446442090965 9.3784173697325617 2 77.147508803476569 7.034698600287034 2 77.977397252530054 0.7 2 28.843454237302414 3.508837343166519 2 61.029830628724731 4.4859586574052468 2 64.280184181011762 9.8770525043471498 2 69.259773738628155 7.9933383596202709 2 75.648774929525743 12.256195940071754 2 77.823099108397216 7.1089212348286921 2 10.622136259539923 4.0616034402994057 2 13.70181882130823 11.40192472107427 2 27.671979692575775 9.7838479264985381 2 30.450131579204704 6.3746874568758853 2 35.446858534299913 8.8647195263133334 2 62.928941571355942 3.893546968383232 2 66.401792317487192 0.7 2 68.531268847181408 9.1627871654138069 2 75.122996039747875 11.794110519429458 2 10.091296612502857 9.6508350573130333 2 15.545033024458293 11.599541660110274 2 23.854240864956047 10.788016383640381 2 30.924860329763124 2.4336562372097652 2 61.228952759447537 10.203180930854904 2 67.685183065776201 3.3748756966211029 2 63.42659084770937 9.6599942746290335 2 71.528056751457697 5.4693689131036738 2 74.719455979982612 1.6934946615224606 2 80.277335630155065 11.532759754203973 2 78.20040728764755 2.2709887930078505 2 13.940683041371761 0.7 2 12.568579214692926 9.1246386688837049 2 25.718089444568218 9.0893081760143737 2 30.264013856526635 6.9702987911243159 2 31.417905675623192 6.4731257577322863 2 34.710501208184965 8.6631698309764342 2 40.919091317767531 7.8422951036830399 2 44.842525196180873 6.4179309789303876 2 61.862092975210963 3.5240529187693164 2 62.49328608142811 1.7853798430745129 2 72.425858273318553 7.1736784332950663 2 74.469774932588635 11.203902634460938 2 79.438032126991459 3.8026131286914033 2 81.918986255027761 10.647473715580198 2 17.013759397172901 3.7374552528884193 2 27.246341969331894 3.7760578114859786 2 29.309777231958307 4.0813357886717752 2 41.989541994071359 5.6029833305247081 2 62.416847606528904 9.7541390859938364 2 68.50798560346675 8.2159071132643202 2 66.006588777167778 1.5394263293835888 2 77.623334973195412 7.7987077939600677 2 9.7811423261626729 4.3260076159388632 2 14.503226303542204 0.7 2 17.857072645237974 3.8291391825699495 2 28.459757711807324 4.1214858006538639 2 28.733459328666854 6.9034697869365038 2 63.078883512763618 3.0115438217538859 2 66.521036601686177 2.7441944651224608 2 74.009990102224322 2.4511397488955331 2 78.394206416228243 0.7 2 7.2038230208932026 5.2559990218081571 2 14.533632175940332 6.10774811053225 2 30.483893002213758 2.8368054079440355 2 31.712192666244025 4.872390505963442 2 44.357428716356999 6.9584839127718228 2 62.489674799409592 9.1033254257171716 2 69.739353785098075 6.1597221278584993 2 68.227545719465255 11.834585967691288 2 70.440796490103011 6.0257775124844928 2 70.920440335880414 4.3937077363476602 2 76.284732185203893 4.591268055372729 2 80.472235362675789 10.836219634513377 2 6.9209532486309131 0.7 2 9.9791248944200941 3.8425748375528852 2 13.690871755773538 6.1154750937349389 2 15.831216004577907 12.484228878934942 2 23.394504949973935 7.3113051573430994 2 30.874418222663362 6.8392665543321547 2 41.748763744084847 4.9088928698150234 2 62.528309113492334 3.2820832190663305 2 62.590882507893014 0.7 2 76.708697175545225 5.4192500640542791 2 75.675165920841479 11.441119453650487 2 78.820663024971438 0.7 2 81.340814351270311 10.381068694776971 2 6.6753028682970239 5.9418505714599643 2 13.877507117331467 4.9072045811770959 2 27.502680014370039 4.3769265149162484 2 36.728158812069829 0.7 2 41.133619897115942 4.9894807526980793 2 63.470588429263415 7.774910829174277 2 69.223742198001787 8.7237677077580873 2 69.215847312775651 2.715912984879234 2 73.115441706546093 3.3368177579600502 2 74.792120551537593 0.7 2 78.0241959255099 5.1226511217735107 2 81.592036630672553 2.42278285724738 2 7.9082208923851978 0.7 2 13.615531442471012 2.3566123608699967 2 12.670865214279793 12.0136964018479 2 15.380366549460506 6.5181432433745341 2 23.161042865486479 2.9879677277837731 2 28.423904431185058 6.3946226566647937 2 64.075835401315274 3.758591323753115 2 64.342300064328171 2.8611368455735895 2 72.679798070185115 10.684986772970602 2 71.767972385412051 7.329028381001164 2 81.929426079536952 0.7 2 10.54700250395018 4.9592213776174336 2 14.122480953501698 6.6738048003965229 2 31.293620722008715 3.2884686408515895 2 31.796797498616375 3.8806984544735572 2 40.801362431379609 0.7 2 42.830274868064357 4.4746617005745852 2 62.478110872907116 8.3855103644209201 2 66.945150062715058 3.1059714659339877 2 70.934229555693591 5.0068835186346723 2 70.30087936169754 4.1449348812967788 2 75.375893773294379 3.7406594391721883 2 78.859443523884877 7.8795634900855172 2 79.844371906000546 4.3262175128827867 2 93.364257858439188 6.627238329444646 2 13.827413403973672 7.3755425312747871 2 31.266281068288841 8.4713169830312456 2 75.885197978829581 6.9700435698351226 2 73.918782479490361 9.5461579534092476 2 75.696694635076241 4.3193008144491953 2 26.579843731976712 3.0846012293174376 2 63.153744204041729 9.0307230863750103 2 66.303042946705389 8.7457945844684435 2 77.385630005616136 5.3359432361050798 2 11.970859961775655 2.7463468176532384 2 28.223309737280818 9.8610256097040381 2 64.713315357987142 5.3879763039900661 2 64.083476202929489 4.424286090802596 2 9.4069817079891553 9.6466927985770212 2 12.608413012637889 10.605619879647261 2 33.257356701121182 5.0907630964320143 2 60.579816806860194 4.8849188836419239 2 69.806235057464704 6.9827959416670273 2 70.781628499553634 5.4909366780421252 2 74.150369373062631 3.1459665209624177 2 79.485210580277283 8.0514936561750705 2 5.9092800246555859 8.838329558870603 2 8.9623558675326596 0.7 2 15.330171890421902 7.1486712844358147 2 20.018748533123798 5.5024578713571346 2 26.252680787068041 6.8610822845863213 2 33.263372384758704 14.045992304706186 2 40.228424645696201 8.2789157311170118 2 61.532177799898392 11.296076527867346 2 61.327573348298969 3.8788253514748035 2 66.015332844562053 0.7 2 67.688823479515548 15.388998898742877 2 69.987876882066644 12.774925268433071 2 80.995639085078835 6.8157744273926406 2 5.9810782852102626 7.9494491144920261 2 18.003759794759453 4.4788199635219135 2 21.107052649815291 2.7559024825596108 2 29.894978885805408 2.9147066937677799 2 34.830423292196983 0.7 2 39.004625238453542 4.7048547508252287 2 45.998029457168457 2.4504286574677261 2 48.530429880391637 4.2234908139045091 2 65.246275145935684 18.414286124924192 2 68.801775274253899 0.7 2 73.967260809371027 1.6298588736230712 2 78.906335368984756 12.311100299624718 2 76.864172520887792 0.7 2 83.106432857892585 0.7 2 7.5389320457383127 4.0701673001493468 2 16.600154629588417 7.1444041299684065 2 23.314073672653873 4.2909494534680803 2 27.498035118180887 11.567557528752145 2 32.998483139351102 10.933018216468183 2 41.995066295795567 11.779040506136212 2 50.948931034912718 7.0082729404055479 2 59.028750771689324 12.042260845814893 2 62.570094732365099 10.947889650417114 2 67.19393332315596 11.943830848127689 2 72.005821447586072 9.675727417227602 2 74.113518315779643 7.3917664051377097 2 73.911212976283252 10.16089789209804 2 82.439567707342547 1.6343692051989351 2 3.8933825007826539 4.7125711418688869 2 9.6807284655499881 10.373635881591381 2 20.203270564781263 4.7282680284720104 2 29.935284113716552 2.2768795705572513 2 38.682239228767926 4.1272447859888484 2 40.307349772072513 0.7 2 45.852298475452294 3.209910729244823 2 49.019676046900635 3.488179192253424 2 59.599867875892961 0.7 2 66.519022877664057 12.982043244598286 2 69.573885077205333 0.7 2 82.191788678612141 2.4724731266819147 2 93.492276068973339 3.5711751380135661 2 1.8493090375338235 10.370794968412875 2 4.0136439459121727 6.7203390229261197 2 9.3464873379603617 3.4494779128847557 2 11.207173827948296 3.6646286257107774 2 15.412456493084374 10.674876054190618 2 18.125041744361415 9.7321516008144826 2 27.480745799684488 6.6045650273096985 2 27.91484496281138 10.887037157133905 2 32.089083225554461 14.823795524780593 2 43.537689674273103 11.95633502625876 2 58.805867593806035 10.627448177928368 2 62.623901455738512 2.6169918401669454 2 63.837350066234663 3.1242545998412621 2 71.726056773168139 8.6175544456056326 2 72.005655037357926 10.410563327946646 2 92.894393446028332 3.7022228427161159 2 94.42222543467733 7.4853485343154915 2 0.7 3.7653334570740804 2 3.2732533506176718 0.7 2 7.5080143598410114 11.789993919095416 2 14.314013142175186 2.3793102198676226 2 34.231898551412797 17.78697720596103 2 25.869800770771921 0.7 2 35.551599414413268 1.8606143754824997 2 36.278725021294498 2.015625487814642 2 45.120250359938112 3.0298086074645711 2 47.333143261202189 8.8446585277788596 2 66.86772748413803 2.1519913399459645 2 73.918934700278157 0.7 2 79.380914531360631 11.383104750072446 2 76.100017335657483 3.085235934332657 2 82.107622647174082 3.0422271819149223 2 95.08158041415895 8.1740857724011473 2 96.182628914281622 2.873239189407502 2 0.7 9.6395667052139764 2 6.5164803663901782 9.0017953486718785 2 10.023383346589588 5.1621594647531461 2 10.48140661353052 13.913896894566021 2 16.311858406788517 6.5649750622969751 2 23.091126745081407 6.232158779771745 2 28.00416334462707 14.996866259371167 2 33.090998521062595 14.883106667646004 2 42.792539797161886 11.358137131624984 2 44.152591757709885 12.431586731456862 2 51.235821506860574 5.4736094096972661 2 63.020399221089662 10.14192001873144 2 66.804690118483052 15.702328569572876 2 69.532414113157699 14.070780002239427 2 72.778821879996613 4.0107644111217198 2 73.790711110058524 14.345735782706832 2 79.283982048099247 0.7 2 93.780515808181519 0.7 2 2.5973381806692522 3.0207331440601006 2 4.8118449194284763 3.9130685312218687 2 15.222048422286242 2.7473310342993522 2 20.748761900891967 5.683483867901626 2 26.222893647692366 1.7078677066000185 2 26.388029655487291 12.394050720533967 2 33.727816846135823 13.118926863068449 2 34.392832339284482 0.7 2 41.876174573871566 0.7 2 43.508831455347888 4.0944921002089236 2 58.343800759984482 3.2687040302547392 2 64.237676433192107 12.182504128739964 2 71.518837143138484 4.3016904193329868 2 80.098232277103477 3.8548653189046895 2 93.355215549343598 2.8260851407820717 2 4.468187754537249 6.4411235546526298 2 9.4336530398179814 2.6601376683216831 2 14.045689112702435 1.2496965847887869 2 11.925207162086968 8.6751517349819096 2 16.814051562058982 10.022063173240397 2 20.782148284318289 8.4116334187619248 2 24.514121807015389 7.857005162094409 2 29.22106025887059 9.6566225375837664 2 34.733321288105323 9.3177932346749532 2 35.414484056791437 5.8249282175001573 2 40.901730208514749 9.1555975295678689 2 41.991643335207677 9.2280439096725893 2 45.392976012480261 10.33052246097774 2 50.579483919445288 7.73783389996672 2 59.07769675681417 16.423055967101014 2 61.659807063279153 0.7 2 65.212629530973928 0.7 2 68.674812979106903 15.607435161978639 2 70.346446094295842 6.5949944108412195 2 72.904114829829879 7.7857548368611402 2 70.51851217866276 14.000197860243256 2 76.965936830053636 10.659377640656752 2 78.274542163834568 1.7339929652393855 2 80.81093491204669 5.9963543325168098 2 85.661377013308922 3.2326249501731259 2 97.394771111928094 7.0588580023013039 2 0.7 0.7 2 6.1390064081452618 0.7 2 6.9455904836227127 8.3966466215354973 2 17.034499672230591 5.4836910755364601 2 15.496062920755387 15.288235203540868 2 19.281960398402759 4.3963925378997697 2 25.062728540550498 3.8464714677220346 2 30.767343225505325 1.9315917535826022 2 38.096920743520975 4.0602551378719758 2 40.716725218534719 4.1021165823674828 2 44.378561435326127 0.7 2 48.426044944609977 3.384892273693755 2 59.146455066489303 6.7904018923141791 2 65.192623095474445 5.8664661886944698 2 68.078413751299408 11.114096226162536 2 69.767459741982989 2.2028843901899346 2 73.462422660253964 0.7 2 77.669444626753275 15.057406077715113 2 77.856892292638619 1.3458782179474265 2 80.956634012682102 5.3397179470557798 2 97.41741969634802 5.8337708703570961 2 6.3138055550481775 3.987173118078978 2 14.012216321910058 3.0038066412778686 2 9.6771395648277814 11.021014076333893 2 16.904891599257969 7.7812839994093057 2 24.476040042868512 3.5036537747825376 2 26.932204000324305 6.4539732497008604 2 28.040419296903146 14.068481569465375 2 29.375525860231399 6.5823884017690819 2 35.647355204420037 9.7692932058508077 2 38.39443942670345 8.3670058028173404 2 42.716543357558308 9.9104449064115308 2 49.080385793224913 8.2943364392830254 2 56.970736577628927 14.72961244528031 2 62.087080221911123 10.244510331097576 2 64.498054405382732 6.6251434051880693 2 67.871916246841579 4.0564622475084811 2 67.712929845886293 14.79126961456164 2 69.169692011496309 11.733450076900288 2 71.078703590466432 6.1195928736462468 2 76.542645378334541 18.49825600124186 2 73.322423384394838 10.259149873214287 2 82.483197220714132 0.7 2 79.830683758632247 11.981177330786842 2 96.646392794573273 12.796625653564767 2 2.8760758668097277 6.5472639111738751 2 5.7053163515084933 6.3231678951257573 2 9.3791375226870333 8.9907016268699458 2 10.667370294821655 11.997954490058117 2 14.722978339307479 11.191693756350194 2 20.074843526364841 3.4335614628821784 2 29.897331297488417 0.7 2 32.176055875349149 4.4910465442549619 2 38.997048193554065 3.6566292163394354 2 42.38220489926762 0.7 2 45.147486750777453 5.6280462583266431 2 49.000341973948821 2.6072793432639152 2 55.491854040408676 2.4162282881758097 2 59.081258626943402 0.7 2 62.619959463913162 7.7505859433916395 2 68.497045572232281 7.5614531726637386 2 64.610508898115313 13.822600608608198 2 69.264975671222786 6.6916848106009486 2 71.508718585812574 0.7 2 75.014319109535478 4.1997072441731786 2 79.279469300139255 10.730208468955036 2 82.095125818326977 3.9481694918522989 2 96.679245831314958 0.7 2 2.6330000464343266 10.608215024561218 2 5.2442956615957543 9.0411633998650007 2 8.6643085847331527 3.6896165412697788 2 9.3967222383655127 0.7 2 17.423881498811525 9.7359766002889589 2 17.900159381315678 8.5084482985385819 2 27.20231857081771 5.5632350230437098 2 28.804601995118027 10.193617866835343 2 31.233242293105828 10.278210996163024 2 31.569620187099044 7.1546891667360475 2 42.998639009955433 10.7214121533325 2 61.812008219127314 10.788605142512296 2 61.282538391693812 2.7407719156087356 2 63.462549161615527 0.7 2 71.330023396387318 9.9659718411980176 2 71.851726535242364 11.732323263988478 2 82.329250382695463 8.5436374548093745 2 92.097989946677316 7.484210711054458 2 95.115983913480605 7.1040912738293907 2 0.7 2.8023102488411427 2 5.0411568148483683 0.7 2 8.960189722567371 10.365203936559226 2 12.785738318798744 16.591147835550075 2 14.661958408880116 2.8958230153514339 2 20.03828593289721 0.7 2 26.39232942032644 0.7 2 34.479249679759015 1.4093134912384702 2 37.060865462222843 2.4296026032695255 2 39.786903575847312 4.1061640982140597 2 44.221071970958903 3.2133199502734704 2 47.364246455509317 8.2125979673309146 2 55.825839035670782 3.6705191461750029 2 59.651608243964972 8.9639630105840169 2 60.843920561448961 17.929979934069902 2 69.173222554325591 0.7 2 72.763293170998921 0.7 2 78.728849329914951 11.670355686444607 2 74.67723057448832 2.7190633636274639 2 82.839715403266737 2.4172601838385255 2 94.981520619091782 9.1421567674209889 2 97.192022794189484 2.6175690411109249 2 0.7 10.305780631171736 2 9.7830022337110325 5.6792971266930063 2 11.954955679042255 12.171714325017778 2 17.605887327739737 4.9576793962314785 2 22.408515460874661 2.4997467112550442 2 27.851611931687781 12.169457326864743 2 31.339736885120864 5.3166368948221221 2 33.454094701874929 11.443931461899103 2 37.769787684193652 5.9871819901677545 2 49.62247165115361 2.9764685355665867 2 68.367613674390284 14.257010628666521 2 74.370773217473257 6.17795886609251 2 74.565076167915933 12.261895981551326 2 81.000772739562265 0.7 2 0.7 4.4509118123634384 2 3.431809793750233 6.272779968264464 2 14.613239511834168 1.688328335313819 2 22.72304068679777 5.6976966120091781 2 26.321585152947229 3.8567340651311652 2 34.381731741239747 13.227039480080526 2 30.388782040211154 0.7 2 45.00226568242315 0.7 2 43.891726148502833 4.5723124796237258 2 56.592877004554175 4.9052312510562786 2 58.631657106228367 2.6764080908778674 2 63.813270559321467 10.354704515502679 2 69.592740562444675 3.3701833793530982 2 81.524410375159718 4.9175375055411443 2 91.506653380602216 3.4935386345533073 2 96.18361048589972 2.3272267845215993 2 12.608341071756767 6.889668979144421 2 32.100461350123098 7.8616557725079286 2 43.818133447289952 6.5900841422122554 2 75.243798324732069 6.7681924395349506 2 78.264083313740429 8.7689521246574742 2 76.052781222345004 3.7872548176916228 2 25.424964889167363 2.93802400794715 2 64.170027391847739 9.3045227288318859 2 66.732325405817235 9.3282928013584563 2 78.655138046485916 5.3469427825240441 2 14.382492985702445 5.4917906396037894 2 27.972210859928726 7.0673906719566393 2 61.752847134018168 4.3539996151805971 2 65.842511514182945 5.9637742017721251 2 12.123406258004055 6.4006457606383478 2 14.214636113960092 7.9439291915406152 2 32.548870089639884 4.9284130413826208 2 60.649035968842419 5.6136088389051322 2 65.440197606889271 6.5840547477543421 2 67.225236906459557 3.8508629561211629 2 75.085624645691098 6.0641039035789372 2 76.405227065692344 11.16558529713897 2 3.0222687239313832 7.7444156411417406 2 6.2092352258419101 6.5124619782004496 2 8.8516275812749985 3.030925451544094 2 11.437854447508574 0.7 2 13.35643435952802 6.6920504244268324 2 15.981549922050949 7.355371191094676 2 20.878874147389457 6.4618669972248659 2 23.973714061741628 7.8060443101377848 2 29.974715879700479 9.4702666153209343 2 33.886364962246702 8.484607788875957 2 35.297258728660701 7.9575878241338112 2 38.507758349954479 10.918242206772193 2 41.702819835792447 6.7866588918175932 2 44.598548364253233 7.6232636159670086 2 49.766557326002371 8.2273174659844859 2 61.290677555547106 13.546833196548985 2 59.364366490631383 1.9940405427842265 2 64.291409783570217 0.7 2 69.397847203692834 9.2860970668299583 2 73.551604629647514 9.0896842070278474 2 73.10862375388696 13.233708462519827 2 75.689431075527565 10.683771954465614 2 78.132351348277226 4.5273940309965193 2 81.579160558187979 7.4451015578359039 2 86.405700891847317 5.7458277751722777 2 95.764339242015026 8.5935415255600756 2 1.81112088549563 0.7 2 4.0181179694001594 1.1214723205600508 2 6.4720400739146449 7.0359106215543559 2 14.216039380237445 4.3327101183269088 2 15.315268670096801 13.21714558731534 2 20.504727382513938 2.7757208836096918 2 25.597230100670064 3.592181043408754 2 27.931695058925474 16.980793553154356 2 30.338384806137494 1.6866281858379779 2 35.302153712353103 0.7 2 37.90387598084164 5.3358257684514907 2 40.705300749340182 1.3582327780156633 2 44.998200982421835 1.3127291962694094 2 46.535569445011255 3.3553477785906307 2 57.083798684049782 0.7 2 59.904023161870128 5.5935744830529472 2 67.83056978992407 7.8483665952489794 2 67.547284268834616 11.435968616257121 2 65.868147538468492 16.177162056924381 2 68.85245435080445 1.5174298732376423 2 73.53862404433572 2.8451402638386858 2 79.528519664817665 15.92581642222444 2 75.277595604636815 2.9646755902599664 2 78.20792146135436 5.8617381512064197 2 85.174360373858278 0.7 2 83.696029703275642 17.512816624279669 2 96.990890373864971 5.3007623192025015 2 8.0906815444696534 3.5693337739767523 2 13.19