<?xml version="1.0" ?>
<VTKFile byte_order="LittleEndian" type="UnstructuredGrid" version="0.1">
<UnstructuredGrid>
<Piece NumberOfCells="0" NumberOfPoints="60">
<Points>
<DataArray NumberOfComponents="3" format="ascii" type="Float32">1.3329284203846865 2.9724290192804692 2 5.3254495342380901 2.8312417967255046 2 10.116769250634748 1 2 12.097598785068842 1 2 13.118098459683301 2.744271482475872 2 15.705677496064027 2.1726226774284658 2 19.965115489406593 2.8783311070494002 2 26.522182395706579 2.5277560435465238 2 28.794511800801498 2.748779906168811 2 30.084454177142423 4.2773193381659844 2 31.580288991696765 2.9554135121732736 2 33.701247871064226 2.9330563190635699 2 38.379453342897897 2.518885405665118 2 42.120108756706045 2.9608832553113942 2 44.449404341773551 2.8598258377185011 2 48.435117178840116 2.8530431292713221 2 57.697533391503256 3.1693792059400545 2 62.106363277166857 2.9335156216090312 2 64.598993212863846 1 2 66.385242246501718 1.3630271493860571 2 68.575940935318897 4.4705619468124445 2 69.987212580077681 2.9637712246152912 2 73.261769866340273 1.9885151115728441 2 73.811822124466843 4.0452641405957142 2 75.147411545296336 2.5653437095951572 2 78.319321129812892 1 2 80.53670504353957 2.9778021595867163 2 84.083244066200763 1.0141346587325997 2 91.98376023565001 1 2 96.581216669280622 2.9786194653441358 2 1 1 2 6.1352938929412293 1 2 9.1386426328351575 2.8057715690619247 2 11.126496560178563 2.948053716423936 2 14.0876514352494 1 2 14.731123531610308 3.9270439223508338 2 19.289026112147717 1 2 27.802621686374515 1 2 27.412597228406277 4.3155346437368278 2 32.079923686556725 4.8822641682475867 2 31.114083319749597 1 2 33.135851159397554 1 2 37.10492757478697 1 2 41.719251377018182 1 2 43.724803030471435 1 2 47.719997910236337 1 2 58.047883481694647 1 2 62.504253912293052 1 2 64.873497095404858 2.9789881930681266 2 68.064433233646156 2.5256493714288673 2 66.635514275180341 3.9290172858122285 2 69.549456584147492 1 2 71.603182401145048 1 2 75.811040063023341 4.4664133949057137 2 76.286123195992033 1 2 78.536392039710748 2.9836674042910012 2 80.173438069880859 1 2 84.510648581332049 3.2946273475833259 2 93.313384008164604 2.5340768674958611 2 96.851130202350078 1 2 </DataArray>
</Points>
<Cells>
<DataArray Name="connectivity" format="ascii" type="Int32">0</DataArray>
<DataArray Name="offsets" format="ascii" type="Int32">0</DataArray>
<DataArray Name="types" format="ascii" type="UInt8">1</DataArray>
</Cells>
<PointData>
<DataArray Name="Points" NumberOfComponents="3" format="ascii" type="Float32">1.3329284203846865 2.9724290192804692 2 5.3254495342380901 2.8312417967255046 2 10.116769250634748 1 2 12.097598785068842 1 2 13.118098459683301 2.744271482475872 2 15.705677496064027 2.1726226774284658 2 19.965115489406593 2.8783311070494002 2 26.522182395706579 2.5277560435465238 2 28.794511800801498 2.748779906168811 2 30.084454177142423 4.2773193381659844 2 31.580288991696765 2.9554135121732736 2 33.701247871064226 2.9330563190635699 2 38.379453342897897 2.518885405665118 2 42.120108756706045 2.9608832553113942 2 44.449404341773551 2.8598258377185011 2 48.435117178840116 2.8530431292713221 2 57.697533391503256 3.1693792059400545 2 62.106363277166857 2.9335156216090312 2 64.598993212863846 1 2 66.385242246501718 1.3630271493860571 2 68.575940935318897 4.4705619468124445 2 69.987212580077681 2.9637712246152912 2 73.261769866340273 1.9885151115728441 2 73.811822124466843 4.0452641405957142 2 75.147411545296336 2.5653437095951572 2 78.319321129812892 1 2 80.53670504353957 2.9778021595867163 2 84.083244066200763 1.0141346587325997 2 91.98376023565001 1 2 96.581216669280622 2.9786194653441358 2 1 1 2 6.1352938929412293 1 2 9.1386426328351575 2.8057715690619247 2 11.126496560178563 2.948053716423936 2 14.0876514352494 1 2 14.731123531610308 3.9270439223508338 2 19.289026112147717 1 2 27.802621686374515 1 2 27.412597228406277 4.3155346437368278 2 32.079923686556725 4.8822641682475867 2 31.114083319749597 1 2 33.135851159397554 1 2 37.10492757478697 1 2 41.719251377018182 1 2 43.724803030471435 1 2 47.719997910236337 1 2 58.047883481694647 1 2 62.504253912293052 1 2 64.873497095404858 2.9789881930681266 2 68.064433233646156 2.5256493714288673 2 66.635514275180341 3.9290172858122285 2 69.549456584147492 1 2 71.603182401145048 1 2 75.811040063023341 4.4664133949057137 2 76.286123195992033 1 2 78.536392039710748 2.9836674042910012 2 80.173438069880859 1 2 84.510648581332049 3.2946273475833259 2 93.313384008164604 2.5340768674958611 2 96.851130202350078 1 2 </DataArray>
<DataArray Name="forces" NumberOfComponents="3" format="ascii" type="Float32">-0.0010965664478940686 0.0021171842960747522 0.0 0.00014827398740582896 0.0035006916891128165 0.0 0.0026687912769628123 -0.00048151501717104851 0.0 -0.0028779732814534498 0.0 0.0 0.0016998949120624277 0.002539586337270491 0.0 0.0032449601658389067 0.009017762977596289 0.0 -0.0025784117368616599 -0.00096058000334401684 0.0 -0.0047460497323327105 0.0080259844774620628 0.0 -2.2175769114342103e-05 -2.627755948470231e-05 0.0 2.2175769114342103e-05 2.627755948470231e-05 0.0 0.0012057110086049496 0.0054717166689401426 0.0 0.0 0.0 0.0 -0.0013741951432107713 0.0040943646436802129 0.0 0.0017773242883809383 0.0012361645811621498 0.0 -0.0038626843833428036 0.0014950414069559697 0.0 -0.0079970432812968319 0.00041866572568312766 0.0 0.0069203068133185074 -0.005298991947805122 0.0 -2.9205691195465378e-05 0.00011144795977042852 0.0 0.037179136329899221 -0.0084244135562600974 0.0 -0.034310523855054093 0.013181531406590424 0.0 0.0 0.0 0.0 0.0086809239566969475 0.0060466089738933689 0.0 2.2803474705360149e-05 0.0063082678996870005 0.0 -0.0046701525711119723 0.015853671165303194 0.0 -0.001990238478860637 0.0068380186091419881 0.0 0.024728851408170271 0.0 0.0 0.00011101098922551853 0.00049428133085666212 0.0 -0.035582387696838663 0.00067778224366012239 0.0 -0.0092828241393135801 -0.026079263605569857 0.0 0.0041823212181856103 0.0016833112567470154 0.0 -0.00034254644519031077 -0.0020139927940025855 0.0 0.0023633805501779084 -0.004109853088962721 0.0 0.00063957836128697952 -0.0011475105005202448 0.0 -0.0018977622472519684 0.00063250946892915263 0.0 -0.0020437410162927171 -0.014687746829443325 0.0 -0.0093221217562155633 0.018847999512197899 0.0 0.011734704525423467 0.0 0.0 -0.0081198457820234275 -0.0070145442225990591 0.0 0.0033866427952202829 0.0069276327194510261 0.0 0.00033388430951240068 0.0012886679681684732 0.0 -0.011260195437591609 -0.0046996158157069741 0.0 0.011212446223325363 -3.1435593683049918e-05 0.0 0.007853136841049102 -0.0082694800008989797 0.0 -0.0034565048202219737 -0.0015632218469137649 0.0 0.0017153301736559622 -0.0014949381244913755 0.0 0.0028435424764041068 -0.0054207889062681961 0.0 0.00089394321711950056 -0.0003366323998570643 0.0 -0.057544827330598514 -0.00011144795977042852 0.0 0.0 0.0 0.0 0.014186400914626392 0.012846594040729612 0.0 -0.0014905750624365148 0.0021678734365695139 0.0 -0.027178546373904808 -0.014435512419146429 0.0 0.028890814158239134 -0.013763613990617388 0.0 0.0089387925986400118 0.02592873496080237 0.0 -0.020338762630670082 -0.042273737674923845 0.0 -0.00012722441546658526 4.32707042217602e-07 0.0 -0.037674025149833631 -0.00049445912804303531 0.0 0.00091876359264314871 0.00024395989097088333 0.0 0.017873562078522243 0.022106715863903136 0.0 0.00018738744666874378 -0.0038958075527121402 0.0 </DataArray>
<DataArray Name="radii" format="ascii" type="Float32">1 1 1 1 1 1 1 1 1 1 1 1 1 1 1 1 1 1 1 1 1 1 1 1 1 1 1 1 1 1 1 1 1 1 1 1 1 1 1 1 1 1 1 1 1 1 1 1 1 1 1 1 1 1 1 1 1 1 1 1 </DataArray>
</PointData>
<CellData/>
</Piece>
</UnstructuredGrid>
</VTKFile>
