<?xml version="1.0" ?>
<VTKFile byte_order="LittleEndian" type="UnstructuredGrid" version="0.1">
<UnstructuredGrid>
<Piece NumberOfCells="0" NumberOfPoints="49">
<Points>
<DataArray NumberOfComponents="3" format="ascii" type="Float32">28.460239928802014 0.7 2 64.61202887490451 8.1050721173982119 2 67.550483027075884 0.7 2 72.286572743026014 7.4692876640173171 2 72.521623045911625 5.1806870455193534 2 74.107592005390941 0.7 2 14.323699563085267 4.280881081558876 2 31.478303889170977 7.5119494779236682 2 72.922166677498097 6.3709228370865665 2 66.4841359397292 4.4832050894828352 2 28.266499327603309 3.2337691402562694 2 71.794550451256299 2.4781425287083585 2 71.654587925413907 4.3650226356788364 2 76.554295106487288 3.9016646513958144 2 79.82805109057476 7.4865814570300238 2 11.242269047602582 5.8602563410278643 2 28.51786126639497 7.0206948055161922 2 30.475787419200735 6.8542547181561586 2 40.120755720843832 4.4818657009668001 2 71.473155495332747 5.7502921734576562 2 74.188733879882363 6.4686554729340981 2 75.641402497560847 4.7312421102415056 2 77.027916969719996 0.7 2 27.882405430557114 2.3271156503316597 2 62.466083378422482 2.4021180292476942 2 66.239620866123346 5.8755771939030721 2 68.945911533288992 5.3622519291877548 2 76.012131834536206 9.3044470564342081 2 76.803935750746206 5.1000641786605403 2 11.564241528882059 2.7833618065490762 2 13.804487754115801 7.6332583445260767 2 27.668616780830128 6.1140340241723674 2 31.22461093545208 3.965657583564008 2 34.662048837133042 6.4023582147745506 2 63.686095631221669 2.8835873046474232 2 66.546048642150211 0.7 2 69.095265000599852 6.5722960805023849 2 75.484920332935303 8.0593459855265781 2 10.016686340411862 5.9449493864510083 2 15.037324094104811 7.4776986589197074 2 24.973898495110507 7.3161596936356812 2 30.849493069429752 2.7585029977609805 2 61.978936758452896 5.4386728847721759 2 68.249584979518104 2.530864877355401 2 65.06322045062926 6.90000817547745 2 71.156980239103518 3.3119576540046811 2 74.051901531247012 2.0349777576378369 2 78.714691432775723 7.9584903695750855 2 78.684415580215983 2.7158288321542852 2 </DataArray>
</Points>
<Cells>
<DataArray Name="connectivity" format="ascii" type="Int32">0</DataArray>
<DataArray Name="offsets" format="ascii" type="Int32">0</DataArray>
<DataArray Name="types" format="ascii" type="UInt8">1</DataArray>
</Cells>
<PointData>
<DataArray Name="Points" NumberOfComponents="3" format="ascii" type="Float32">28.460239928802014 0.7 2 64.61202887490451 8.1050721173982119 2 67.550483027075884 0.7 2 72.286572743026014 7.4692876640173171 2 72.521623045911625 5.1806870455193534 2 74.107592005390941 0.7 2 14.323699563085267 4.280881081558876 2 31.478303889170977 7.5119494779236682 2 72.922166677498097 6.3709228370865665 2 66.4841359397292 4.4832050894828352 2 28.266499327603309 3.2337691402562694 2 71.794550451256299 2.4781425287083585 2 71.654587925413907 4.3650226356788364 2 76.554295106487288 3.9016646513958144 2 79.82805109057476 7.4865814570300238 2 11.242269047602582 5.8602563410278643 2 28.51786126639497 7.0206948055161922 2 30.475787419200735 6.8542547181561586 2 40.120755720843832 4.4818657009668001 2 71.473155495332747 5.7502921734576562 2 74.188733879882363 6.4686554729340981 2 75.641402497560847 4.7312421102415056 2 77.027916969719996 0.7 2 27.882405430557114 2.3271156503316597 2 62.466083378422482 2.4021180292476942 2 66.239620866123346 5.8755771939030721 2 68.945911533288992 5.3622519291877548 2 76.012131834536206 9.3044470564342081 2 76.803935750746206 5.1000641786605403 2 11.564241528882059 2.7833618065490762 2 13.804487754115801 7.6332583445260767 2 27.668616780830128 6.1140340241723674 2 31.22461093545208 3.965657583564008 2 34.662048837133042 6.4023582147745506 2 63.686095631221669 2.8835873046474232 2 66.546048642150211 0.7 2 69.095265000599852 6.5722960805023849 2 75.484920332935303 8.0593459855265781 2 10.016686340411862 5.9449493864510083 2 15.037324094104811 7.4776986589197074 2 24.973898495110507 7.3161596936356812 2 30.849493069429752 2.7585029977609805 2 61.978936758452896 5.4386728847721759 2 68.249584979518104 2.530864877355401 2 65.06322045062926 6.90000817547745 2 71.156980239103518 3.3119576540046811 2 74.051901531247012 2.0349777576378369 2 78.714691432775723 7.9584903695750855 2 78.684415580215983 2.7158288321542852 2 </DataArray>
<DataArray Name="forces" NumberOfComponents="3" format="ascii" type="Float32">0.015022822492616827 -0.44998307039385443 0.0 -0.027353993644616669 0.11288032780340705 0.0 -0.019146904933774134 -0.2072874439320494 0.0 0.015064041079175264 0.086283822367398511 0.0 0.054289620312009901 -0.0055432085284730925 0.0 0.020950795595594363 -0.33226546980734895 0.0 0.037307455254829952 0.083753165594866646 0.0 0.027924511219033887 0.086169861862108899 0.0 -0.028953695929713419 0.026128784572961063 0.0 -0.018426263299915813 0.084372003019714509 0.0 0.0057474862607506672 0.00050818619790637953 0.0 -0.086843034425905352 -0.0096061773687017293 0.0 0.021546966450448735 0.11508549463798463 0.0 0.012960236694255785 0.050159416010364388 0.0 0.058803381801506974 0.083342108605345827 0.0 -0.014189095104267246 0.043474302116739583 0.0 -0.030564954209015671 0.12043544348561212 0.0 -0.072945234912113299 0.1799776330316783 0.0 -0.046690264295277867 0.092806887126885437 0.0 0.08020085268759522 0.13795985516182638 0.0 -0.01676843101025044 0.11429314662775464 0.0 0.022724239773812938 0.06060565498565236 0.0 0.036581856432994664 -0.25401724891577737 0.0 -0.0049367701161424637 0.0028532786862432991 0.0 -0.01684811622094412 0.090071699007944789 0.0 -0.0127623383097812 0.12523588513980985 0.0 -0.013814990652996306 0.042072883685341067 0.0 0.00083637335781197933 0.12253766104289995 0.0 0.0047873137130944876 0.078152061404821185 0.0 -0.0021502518326426204 -0.0036761833838919872 0.0 -0.025394299852426916 0.13527516416364188 0.0 -0.027720281523368931 0.075113083299339786 0.0 0.029292088706199711 0.079465746731100434 0.0 0.024301884460107948 0.075941693581198302 0.0 -0.058304881936548369 0.073327515252302772 0.0 -0.020568630993911662 -0.30734073484813973 0.0 0.040938858855047167 0.059082451811352368 0.0 0.0028795848824269242 0.09959505060852894 0.0 -0.021466548050056183 0.059054021447545207 0.0 -0.017381659359958362 0.13284369827610723 0.0 -0.060238320777515751 -0.0041049087729448852 0.0 0.02653666483783667 0.0359124107591689 0.0 -0.064075842882621747 0.12625920538461408 0.0 0.02277523578651347 0.069332216539223945 0.0 -0.045925111190051354 0.079276746783631766 0.0 0.033258917838442592 0.13410388919020264 0.0 0.028665275025757303 0.0074807855977080118 0.0 0.033770222827714663 0.058373027587900292 0.0 -0.027571935908902223 0.05040671423195861 0.0 </DataArray>
<DataArray Name="radii" format="ascii" type="Float32">0.7 0.7 0.7 0.7 0.7 0.7 0.7 0.7 0.7 0.7 0.7 0.7 0.7 0.7 0.7 0.7 0.7 0.7 0.7 0.7 0.7 0.7 0.7 0.7 0.7 0.7 0.7 0.7 0.7 0.7 0.7 0.7 0.7 0.7 0.7 0.7 0.7 0.7 0.7 0.7 0.7 0.7 0.7 0.7 0.7 0.7 0.7 0.7 0.7 </DataArray>
</PointData>
<CellData/>
</Piece>
</UnstructuredGrid>
</VTKFile>
