<?xml version="1.0" ?>
<VTKFile byte_order="LittleEndian" type="UnstructuredGrid" version="0.1">
<UnstructuredGrid>
<Piece NumberOfCells="0" NumberOfPoints="471">
<Points>
<DataArray NumberOfComponents="3" format="ascii" type="Float32">26.18426838805436 0.7 2 64.413351236821825 11.991231303926767 2 67.514306339968627 0.7 2 72.805000831571675 9.0270843638190712 2 71.814749272317229 7.20143168289286 2 74.352921652413357 0.7 2 14.516829312141212 6.4178217185751318 2 32.052392486368426 9.4401322897047653 2 72.591588576835491 7.8920804475112609 2 67.213182584737098 6.9218142783703316 2 28.200461402908591 3.4724057821075776 2 71.858481901310441 4.2323438095995991 2 71.214822139211307 6.0260546898184613 2 76.818199252976257 4.5499693745817922 2 80.747846553773314 10.525734299178632 2 11.170398404938943 7.6755670234269546 2 27.534551282951806 9.4597594651764627 2 30.549097738979409 8.9679308626142706 2 40.872790336756864 6.6465264753633519 2 72.055091000655693 8.4000698520560597 2 73.445928482982623 8.3565453491793331 2 76.757444175147128 6.3180522246106507 2 77.134136029049927 0.7 2 28.672300436585193 2.7477879688222155 2 60.981941487067104 3.9904323568750626 2 64.780160069483415 8.709493852221172 2 69.092645184352477 7.0165055598559105 2 75.850885004668811 11.545575000212407 2 77.743788198263417 6.6887589689835654 2 11.563458831444759 3.7192654540885406 2 13.975325310655972 10.449051941735707 2 27.217991323370999 8.394981717221814 2 30.693712342346611 5.8635124376739194 2 35.303649934804973 8.3974123771071891 2 63.190485625308149 3.474988554674908 2 66.925042190423724 0.7 2 68.719063871708116 9.167395758690942 2 75.033595279819707 10.317035926943515 2 10.517747670204439 8.1193379140063549 2 15.366749956410471 10.705937801977946 2 24.751475264041666 9.4865294028725007 2 31.10103546847493 2.6212051637183742 2 61.558578190779272 8.3638805137552925 2 67.998088539263904 3.0584067671699251 2 63.766189029915424 8.602535953390392 2 71.336842304711851 4.970685258447137 2 74.355202859594499 1.6692573104183455 2 79.829883433039427 10.932370715327481 2 78.705185058724368 2.5685548574922357 2 13.475821429701988 0.7 2 12.674263232400385 8.3132789007669938 2 26.497059134953702 8.2257134114944321 2 29.964636899944146 6.5874203658846309 2 31.737811702588687 5.3783745513656411 2 34.617365046875832 8.1849084076342535 2 40.864057051921137 7.4274019868048882 2 44.292197744903135 5.9929722128863121 2 62.065437225400927 3.6266812872507495 2 63.315187612060001 2.1552799819486483 2 72.690057071787052 6.5363265113392437 2 75.10586605771536 9.5697914606270142 2 78.389759776323771 3.2872859675082586 2 80.823799787595604 9.5034202836216419 2 16.519416266697487 3.3532233672084537 2 27.186091053503063 3.7121720208864843 2 29.144994269644762 3.5520142197488518 2 41.644784406888533 5.7584726392840766 2 62.808210677834559 8.6216936923073781 2 68.087816294647638 7.1518031882293149 2 66.687384292166101 1.7403239040330913 2 78.089112536544178 7.694341877794689 2 10.294368231188248 3.8238332409148228 2 14.332168211224785 0.7 2 17.446495565059216 4.1072187744283246 2 28.250258972592505 4.2893145664053591 2 28.799779397284432 6.3449275759984749 2 63.707047404350497 2.7970593312013738 2 66.174685918103037 2.3995561116840389 2 73.270911299247814 2.5519691316406425 2 77.882706520574416 0.7 2 8.0798484155563894 5.0341888624788727 2 14.78736699125689 5.6883586287047674 2 30.331022969867057 3.0126168311495425 2 31.751026348624375 4.2063238824524092 2 44.329887406802307 6.7793332401227886 2 62.2833654282475 8.0211858542526304 2 69.440911713591674 5.5287206947409908 2 68.357204883220973 10.379222309579989 2 70.198227741925791 5.4160327200348162 2 71.2446336006075 3.8834992466634906 2 76.000076498080659 4.324532201671996 2 79.931383394417097 9.7985398363206517 2 7.1009790878407104 0.7 2 11.00667454982549 3.4392581880012258 2 13.608111411066719 5.7423762676614087 2 16.398892581892731 11.05039108482492 2 23.715560531613498 6.6223898317843091 2 30.834540568266007 6.4620117085330344 2 42.258437814187317 4.7192585263653584 2 62.682588304365133 2.9919793091649378 2 63.461639847353958 0.7 2 76.599482499953311 5.4796256927291678 2 75.862750345301734 10.554205620496397 2 78.145602926618068 1.336887251819618 2 79.945027471124874 8.8350566596330324 2 7.0478902350210646 5.9038478528340708 2 13.850084482390463 4.3548159110476163 2 27.5164548508025 4.3612291368220522 2 36.157585003053555 0.7 2 41.345019834256298 4.5411106531348286 2 63.59416785721406 6.8233316020107369 2 68.598398345687443 7.9144753605485079 2 69.147845830102113 3.0633336466047738 2 72.547997940891008 2.7234060787713998 2 74.898256319202744 0.7 2 77.705145539615231 4.4424034913722936 2 80.932954008934303 2.7243579089309637 2 7.8216504102350193 0.7 2 13.222496342088361 2.2885262197440834 2 12.949450182989306 10.601921222474422 2 15.554460906334921 6.0121061387984511 2 23.326963449616429 2.9427591145067589 2 28.385151964284091 5.2868411632899894 2 64.299815466468559 3.4686691488620021 2 65.251819811666053 2.9345674168908653 2 72.221630699641366 9.7414265789172738 2 71.789796221951534 6.5062182932678345 2 81.068890820091667 0.7 2 10.887270942162758 4.5811762437207086 2 13.697098369794702 6.5670131626775188 2 31.740902179173816 2.8592861605615409 2 32.058972702989493 3.4757043728180226 2 41.315685785382399 0.7 2 42.416082802049942 3.914237913505441 2 63.018651542453902 7.5356314027222995 2 67.12878830900307 2.7457687466667124 2 70.225196916615374 4.343941876765518 2 70.082109107335555 3.6139331045893743 2 75.146443001945428 3.2339790715460031 2 78.79251069990346 7.0727505748293975 2 78.724419015773449 3.9340565971061365 2 92.680779385361532 6.0599575058926334 2 13.414749848787963 7.5684847926974284 2 30.73247216316717 7.6085206560317964 2 75.778234083112167 6.4286187751350896 2 74.411173736793856 8.4073061754675056 2 75.822373280580521 3.6569901050599865 2 26.427346778024475 2.5709864690489188 2 63.812239219758311 7.8854608847908789 2 65.875764372687101 8.0720150548867409 2 77.385719927956728 5.3952312357971817 2 12.029604854772929 2.6710290361709639 2 27.959415056723365 8.7447333970581198 2 65.3042994274726 5.0294496519708956 2 64.77801687981453 4.1351803938177785 2 9.5084016387213115 8.3815147604854321 2 12.968864289175761 9.6213819094813307 2 33.106473523371726 5.1766685857937951 2 61.594557514393031 4.6147713378693052 2 69.26184201919088 6.1843755214066629 2 70.738975776722654 4.8124913940006584 2 73.715662072686143 3.0498968189268241 2 79.230869555196421 7.7523402394981824 2 6.2340644699177838 8.1116520018913931 2 9.6033624455462796 0.7 2 15.462507449323692 6.763984035546839 2 20.306997451208925 5.5489650420616661 2 25.51955525039909 6.2731547215816272 2 32.023423218122495 12.515152989905035 2 40.122925128552154 7.9110337953277643 2 61.971123860404262 11.648178452720796 2 61.467829307914293 3.2325625290012283 2 66.268478997941159 0.7 2 67.974271536953509 13.735546898494226 2 70.562945524612275 11.677726346276135 2 79.724796324482369 6.699295019575616 2 7.2669999160707155 7.2092471447647304 2 16.740316486431499 4.2515680899416006 2 21.137437363034305 2.6982215124031881 2 29.381771071872166 2.8027250799593633 2 34.117042232296754 0.7 2 38.673561839490546 4.767919320748371 2 44.902977800614053 3.0297864852275951 2 48.623640629620581 4.3246814268542204 2 65.356649652931679 15.452555472759101 2 68.729212750706324 0.7 2 73.609919457339728 1.745070146918873 2 78.869544681915571 11.717770694832799 2 75.637827643518847 0.7 2 81.820022184462829 0.7 2 8.1718581389796583 3.9464224453908225 2 16.694666075704244 6.2746252904764708 2 23.915444155782531 4.323419638641723 2 27.284131918650569 10.402670328497917 2 32.909001528195944 9.0277557691728472 2 41.431793353050551 10.664263645866651 2 50.731867711782726 5.8373814286231092 2 59.208839925206824 11.113708961512009 2 62.994730283381777 9.8706157704533766 2 67.26002038367497 10.683047675397246 2 71.558592519034747 9.0676319654154796 2 73.833848139347992 6.2040621321179152 2 74.412354445960304 9.1806826013952421 2 81.651162167377748 1.756514088874769 2 4.7831685259169596 3.9827535979447974 2 9.9941425288162247 9.1131392185932096 2 20.172055550190006 4.8968869614976764 2 29.866076280890098 2.2357260676750905 2 38.465941303056894 3.9856048544354445 2 41.10412967927914 1.2410017531226791 2 45.685565368470897 3.5310624848891385 2 48.773231602694629 3.5009698820073507 2 60.321664264919569 0.7 2 66.189912878702032 10.748802736465153 2 69.904786789489791 0.7 2 81.651323345479938 2.5897266622639852 2 93.076186315793493 3.6498012336172683 2 1.8103651524645155 9.2592152547421822 2 4.0975207409562593 6.2134718841441732 2 9.2560549463076427 3.3038928191528414 2 11.154981887076298 2.6390488625266202 2 15.346725271347285 9.5320095341563444 2 17.903648806583298 9.3310665782778237 2 27.711157111866708 5.5910026524341223 2 28.227453873141897 10.405858633187263 2 31.084753400218844 12.934652910536627 2 43.60782088982225 10.658700533889434 2 59.360022955151486 10.221976382495699 2 62.338628462181077 2.5116202992674403 2 64.487217192211915 2.6868148636770299 2 71.308864801460629 7.9682908423670122 2 71.54472160645642 10.24354675097806 2 92.480454968745804 3.2465442835505014 2 95.115593004755283 7.3890915358443046 2 0.7 2.9973763565175138 2 3.6103531258204962 0.7 2 7.4329231772685418 9.5538724054268567 2 14.069907297441913 2.7168655623080995 2 34.232758830206585 15.457332951968548 2 26.904294626275291 0.7 2 34.60907374435687 2.1904609512559645 2 35.908026708927864 1.9778745449949051 2 44.076431714007498 2.3512015355917666 2 47.133784857933001 7.1907488166321372 2 67.303288566502445 2.0016530739240195 2 73.785622020173591 0.7 2 78.62355778043765 10.802139907152984 2 76.146446709998685 2.465284342320146 2 82.071924926576614 3.2440555478126689 2 95.69466140781077 7.8701146121276917 2 95.799755784944651 2.6513926257085751 2 0.7 8.5891079240807962 2 6.9634985228857724 8.3799379840681727 2 10.346714184306014 5.1882550578561455 2 10.602594285695902 12.512144678159199 2 16.199447046454303 5.6831978826678045 2 23.237829245524896 5.4674778617553708 2 28.302525111886453 13.639148536385905 2 32.987632344464231 12.849940194153726 2 42.477321872557781 10.261791375337062 2 44.056479454833671 11.87042793961006 2 50.751347587949596 4.7093298697262673 2 63.758473988861326 9.3347293591600877 2 66.308867719426644 13.652922963969917 2 69.548029488021044 11.729426099035358 2 72.556116238411221 3.5492552520615321 2 73.370061581980949 12.965532610913979 2 78.769030453396638 0.7 2 93.19559837016493 0.7 2 1.8762403503675729 2.8792852527808379 2 4.8758801007470698 3.0294174468249353 2 15.286629091949845 2.5971132557783965 2 21.525581755601117 4.62137496669515 2 26.745379213407368 1.6628245303400753 2 26.233549859586674 11.079809030734564 2 33.689212512714867 12.183628868785021 2 33.263636721173711 0.7 2 42.023050124878239 0.7 2 43.542107140426715 3.9929017066780124 2 59.951795290936786 3.5829269605450516 2 65.101773180959242 11.093529003610231 2 71.829138360646112 3.0184863961572557 2 79.506064079172717 3.0806379658693479 2 92.936431227890779 2.4245488556550119 2 4.8355453054876394 6.5535141778280561 2 9.4936465413021587 1.9626329191473331 2 13.448787814669705 1.4415743648999979 2 11.99095433364419 7.6285440779120464 2 16.030734878763138 8.6915013347582182 2 20.327477179316155 7.7936251179657177 2 24.711029705908636 6.7351534613652095 2 28.937803166645388 8.6739074879432891 2 34.081231252327349 8.9458110082827957 2 34.284893353862422 5.3912787414351824 2 40.714595955687543 8.3809987510881587 2 41.813520428116128 7.9074775380204505 2 44.619511607401869 9.3662980641938152 2 49.847334869739001 7.0647315596078446 2 60.076054683847175 14.254242319374635 2 62.243103106620893 1.0244539558381653 2 64.890395624106077 0.7 2 68.8577143135646 13.910499731533859 2 70.483797024387002 6.0984739667333807 2 72.98525381900987 7.2482724180908598 2 71.32777279732521 12.422707516433675 2 76.375139725764697 9.4639221589967342 2 78.220713005615409 1.9842424587549994 2 80.173324266838208 5.7989179975676262 2 84.497535981120691 3.3489463927321417 2 97.497414459433045 6.7265581842492006 2 1.0607561669882675 0.7 2 6.3823504047075472 0.7 2 8.4749141611651115 7.4923752667938253 2 16.106226020761603 4.9708105683022845 2 15.307407640087467 13.672476685932574 2 19.699262537654295 4.0487210978088335 2 25.308297282432395 3.3158614191194049 2 30.55336676893198 1.9121915884623708 2 37.257609408078132 3.9631201444133204 2 41.505784718924211 3.785327979702795 2 44.234980398692059 0.7 2 48.016213281404021 3.5802870610715631 2 59.907408636217724 6.4279180348061535 2 65.650143351485326 5.6269568461549548 2 68.113689687536748 9.6285239708349373 2 69.702086932635638 1.8395294749203244 2 73.245097487070055 0.7 2 77.289134401751298 13.412168988004467 2 77.177934346899562 1.7288535445015671 2 80.123966425821806 4.7672684730830239 2 97.447984596461396 5.3546890955561821 2 7.6501984603190225 3.2646888614975347 2 13.615923182080721 3.4736555380297607 2 10.651622534737669 10.141767871418146 2 17.331400661712738 7.1518426670068349 2 24.760698311916631 4.2114922497018803 2 27.014946482830613 6.1643075042136681 2 28.425826351733683 12.598319806668691 2 29.496906904467409 5.9048050944893005 2 35.256043632209163 9.3203691430598266 2 37.766656957663066 7.8689020859881413 2 42.458251837651481 8.6503636604626468 2 48.641389775260485 6.8123028183658523 2 57.979623237575147 13.087669504372821 2 62.405595721691014 9.3233354660383156 2 64.798278890260363 6.1738439258206164 2 67.503190577057723 4.3761839961275353 2 67.381619752329698 13.143818324451273 2 69.104968739475936 10.49345893780464 2 71.859671523017511 5.4494059301063329 2 76.083392513140382 15.418969546228855 2 73.67804650158179 9.4137561586202256 2 81.002142293245925 1.5770489869112843 2 79.775432617672436 12.010785927986474 2 96.783711428208107 11.128739073499915 2 2.2595844521475454 5.3173114402784556 2 5.9266210357843878 5.9315578425230413 2 9.5070676692758038 7.5979476471915461 2 10.544214792945409 11.534770236596909 2 14.600353622710996 9.8848049599140868 2 20.143446662043125 3.0748972132421528 2 29.980379909952234 0.7 2 32.834043334102894 4.0353844428397645 2 38.469179626576292 2.8650430069079196 2 42.807770208325728 0.7 2 44.602794265942919 5.4154929867250337 2 49.210842968932312 2.8086933400580354 2 55.264903768640792 3.0108586495761762 2 60.436984648557747 1.5790469935651323 2 63.20364495028339 6.2087126175436138 2 68.393101978690524 6.4103863120506421 2 65.075376211232793 12.421973211637626 2 68.507212109413615 5.3473976528038767 2 71.060836634859868 0.7 2 75.039336191827971 4.4023426710725957 2 79.087084711293528 10.064753300999609 2 80.809658745013195 3.555219832520053 2 96.191337762655351 0.7 2 2.9670376077575367 9.3729650011846992 2 5.3444001731461492 8.6353863817683276 2 8.6338980264236262 2.9314938349476196 2 10.402325621576775 0.7 2 17.279731517218959 8.409419556671903 2 18.047614234128869 7.5470417741270976 2 27.181472703630089 5.042346604191005 2 28.611395593428952 9.5146530361045158 2 31.365302433592433 9.8297215059917811 2 31.392583275913186 6.9438625375646268 2 43.258298816185381 9.7383880132540614 2 61.942188442695496 10.539164570565122 2 61.668874890010791 2.2418694627744724 2 64.170110238532033 0.7 2 70.882917028435585 9.093473183466326 2 71.447732420378927 11.23927451964391 2 81.674234307106047 7.2307401365898762 2 91.63977157980176 5.9683421314115428 2 95.640951682503001 6.6257338680456437 2 0.7 2.1966347386508533 2 4.4767532160671513 0.7 2 8.8727914241505008 9.4451679231113133 2 12.393705981134259 14.292014000844462 2 14.439934404307753 3.2489247701568567 2 19.989919355285917 0.7 2 27.539770640380773 0.7 2 33.834091615532309 1.5766213911560121 2 36.346910206634064 2.6571022444697818 2 39.690362046243898 4.2781531630001108 2 44.290071426611377 3.5194280214692557 2 47.725434011081923 6.7833040944223448 2 56.217921591666126 3.7456078730744142 2 60.542282142707812 7.8849375084303226 2 61.998495325943395 14.52910728250566 2 69.342459809224707 0.7 2 72.412550294737912 0.7 2 77.674835071597528 10.442479340574229 2 74.313221921728413 2.5670774501749811 2 82.571799379220892 2.4122300562193884 2 94.68659412130603 8.3352528205047829 2 97.527815586849869 2.5820263978051741 2 0.7 9.4787380224708837 2 9.2583030627545764 5.5644449185410112 2 11.448264788765524 10.869766977881801 2 17.020319068268673 5.0028966337808116 2 22.14494812649825 2.9323730855066046 2 28.561669112992188 11.249873834453851 2 30.939616937344766 5.1887693903110197 2 33.043636080073696 9.7994452682606852 2 38.339096321199627 5.8454871052800579 2 49.723861736203759 3.499775245119559 2 68.841656879482684 12.747643941272941 2 74.182478924625897 5.1128638979874763 2 74.738437330889838 11.161104189367554 2 80.27249034875598 0.7 2 0.7 4.8254783436016142 2 3.9918479027194813 4.994144377516947 2 14.174468939987484 2.0383046727556344 2 22.516209937301838 5.0404758208191733 2 26.459698255764 3.3461227844172261 2 34.339245679434413 11.744575927665281 2 30.715895763202056 0.7 2 45.041067261999075 0.7 2 43.848538922996184 4.7298277104773252 2 57.090829838509919 4.1301865899912791 2 59.609041066694942 2.3224141663222246 2 64.348889616492968 10.140253551774533 2 69.901146690136585 2.7765451525202005 2 80.98731024291925 4.7794692999315149 2 91.890349799155629 3.8395474563419705 2 96.564852440246781 2.3183311208318083 2 12.748541713089326 5.7857179147193216 2 32.267996517071914 7.5329132616403509 2 43.24304840118149 6.3020095513863295 2 74.846720422553162 6.3358108603893806 2 77.12729036497231 8.3908393470187583 2 76.334146994387396 3.1982407045749781 2 25.652481408345075 2.5071493375899059 2 64.947240209734133 7.940272806701957 2 66.293509315554147 8.6746444878487416 2 78.36670318551586 4.6548375623125535 2 13.880154259611203 5.2143882882397792 2 28.027636790066808 6.3737071826127707 2 62.298644828142585 4.2186180430485187 2 66.480382603264729 4.6382572949673504 2 11.525781214476293 5.8317938310835986 2 14.424958939437557 7.222587414383332 2 32.350088938452885 4.6650568054925809 2 61.92680553693495 5.4677551207928232 2 65.965384116882817 6.3190956142872103 2 67.300852054180581 3.5914735542791396 2 74.672854570476602 5.5557698927596233 2 76.597065421857494 10.34296007431659 2 </DataArray>
</Points>
<Cells>
<DataArray Name="connectivity" format="ascii" type="Int32">0</DataArray>
<DataArray Name="offsets" format="ascii" type="Int32">0</DataArray>
<DataArray Name="types" format="ascii" type="UInt8">1</DataArray>
</Cells>
<PointData>