<?xml version="1.0" ?>
<VTKFile byte_order="LittleEndian" type="UnstructuredGrid" version="0.1">
<UnstructuredGrid>
<Piece NumberOfCells="0" NumberOfPoints="512">
<Points>
<DataArray NumberOfComponents="3" format="ascii" type="Float32">1.4800000000000004 9.7043406925963893 2 4.9620360996022148 8.084365662950491 2 7.6381778966680614 1.3600000000000003 2 13.278663671386539 1.4800000000000004 2 12.81051695026585 8.1937845765500512 2 16.25992014692622 9.1961286226205168 2 19.847994566801628 8.0506312546953396 2 24.552212288180382 10.536134027164398 2 29.139620595305935 8.8204907938781663 2 29.536804623740352 19.351018311630288 2 33.77714174959597 10.294723078869811 2 34.965752875514809 7.2466788048210011 2 38.755285265296315 11.95692318343974 2 42.355811710545794 7.7695261057563245 2 46.215533181991177 9.3686424777357828 2 49.086090623155641 9.9023385110585309 2 56.64934711415367 9.1977324298173393 2 59.312027800209101 18.279494802579329 2 60.499183913854203 2.161829963128052 2 64.373198475592901 2.0861872984914402 2 69.322140845213539 18.660218418897504 2 70.086237305069886 8.9227243521644599 2 73.793636519275523 8.5220617309365529 2 72.547285303807186 16.740117477607242 2 76.879582130609833 10.21783711668588 2 77.243685033195973 3.1853031689675664 2 83.108673666587819 6.5951688839539813 2 85.974972186140477 6.4692652270166997 2 90.179119338051962 7.9037152729056039 2 99.0 8.6105399303260324 2 2.3177069491882669 1.4800000000000004 2 5.5278629407005058 1.4800000000000004 2 7.5084987218460295 7.9003910732451832 2 10.742328041144319 17.527166983713357 2 15.931503762749355 5.0622504136313067 2 12.793404754248293 13.54956921268214 2 19.289486192690759 2.4621310582349865 2 25.745965624197179 4.75372162186419 2 25.766477509890681 16.638421676854829 2 33.346058757964542 19.726887982771029 2 27.376561219694292 1.3600000000000003 2 36.792404930457522 1.4800000000000004 2 37.810426888488642 7.0894214369067265 2 40.715952718711399 3.0882572057929916 2 46.953860227673232 1.3600000000000003 2 46.698677776142475 5.5774810587607808 2 54.44594393868379 1.4800000000000004 2 57.827914169357662 5.8988783083536074 2 64.725791800992198 8.795405187417515 2 66.527496184563731 10.91710434814236 2 63.629448849593231 16.51653297324448 2 68.000300339175794 2.5944673787049068 2 73.326308577184435 2.3451840914671971 2 80.599683790576762 14.468871699473119 2 76.462551741743667 2.5455726966193253 2 80.244988439744532 6.3469585324974966 2 84.641415458185364 1.4800000000000004 2 84.315602945500629 15.29735045916475 2 93.174860249113891 9.2651663239492166 2 96.11268876978643 4.433402269657404 2 1 16.08906728666939 2 4.8288484976277726 15.293490029581601 2 7.4266780871652909 2.5416770861418194 2 12.458417296869653 4.0272436918327594 2 10.804691606817238 11.131818352254836 2 19.787258048727615 7.3420521578832822 2 21.149728468821806 13.189230172499322 2 23.875726447157838 7.0364947863457159 2 27.457632538755238 8.8471444056820658 2 25.612595486981409 15.311598629118997 2 28.340395157030279 5.6014763152101841 2 36.098257003498702 11.446560172481549 2 38.381795095518214 9.2065604001513623 2 41.734960832907468 11.218264683305284 2 46.224575001168247 16.968911792532918 2 49.682548718368857 5.6938077506837459 2 57.257791945325124 15.313406990605182 2 59.872524356053077 10.644081949146086 2 62.298955921181417 5.7786788803507534 2 65.791347705049688 4.3203072812050314 2 68.079121573680581 13.198400760102102 2 70.622027296104918 11.742826448987458 2 72.977824280330509 6.1044874274056449 2 76.959518096150859 15.148723833268098 2 73.789892995273263 12.36530729092798 2 81.289213377697834 1.3600000000000003 2 82.266001851653058 13.290849577922751 2 87.569019110962216 1.4800000000000004 2 91.810340968730785 1.4800000000000004 2 96.229446359627119 10.889962396063641 2 1.4800000000000004 7.0608021626925188 2 5.612352282921929 5.51381960308413 2 9.6623277248978514 8.5128331664917418 2 9.1266586885912702 13.006391401497382 2 16.359797489228189 1.4800000000000004 2 13.980969515285883 10.244829559796299 2 20.920923189905977 4.1320979228796739 2 23.620146860223077 1.4800000000000004 2 23.591760807482522 14.392938876415164 2 37.610529416941816 17.625410025012055 2 31.403932255891714 1.3600000000000003 2 33.430702014866363 4.4664285915121376 2 37.499826518241271 3.8016517539084349 2 41.247415821755233 2.6627150639102326 2 46.395585850363659 4.9112150535437014 2 47.848571111746161 2.6453009118876425 2 53.31172178669442 4.5140120489967606 2 57.003787348287659 1.3600000000000003 2 61.068045748208185 8.3769215431947277 2 67.989844034549321 7.0497213696721923 2 65.750004633727144 15.251375945331548 2 69.527920394763299 4.6332218848267219 2 70.987808019748286 3.0915226672909606 2 78.025395336212114 21.214537079371187 2 76.222586380004245 6.1950950113717109 2 80.19363235712558 10.270604403603318 2 83.62196271280844 5.481399388412358 2 86.064241860059681 11.840222838459432 2 93.135231289338265 6.1531801495757446 2 95.302006890387489 1.4800000000000004 2 3.4042280196102799 12.932211711758777 2 3.5440592678843834 10.921043898982287 2 10.356494168534956 2.3160806808657695 2 11.188813854630258 1.3600000000000003 2 17.088584399967381 12.086491798808837 2 19.689844273300416 11.185039450237293 2 25.60620519823615 5.2540274258320725 2 28.886850067511208 12.039551654221933 2 30.840488067044951 14.104731134164908 2 33.321037118343071 6.9500064479496189 2 39.691751862083713 15.295852895201964 2 44.272303387679777 11.509143528521378 2 50.331446848943237 12.586099372877646 2 55.973774671618777 13.67018698869339 2 59.563227079848645 13.27177181833332 2 60.543887933841525 1.3600000000000003 2 64.058167033498435 1.3600000000000003 2 72.47788627620487 19.725122440393239 2 70.194160732283208 11.255832537941684 2 72.338952822242533 14.694389737508491 2 81.540491826864653 8.9271529600317905 2 85.748383309578259 8.1445583994415589 2 90.041951544187455 5.2390210314288401 2 97.477627273557118 6.5150322186506289 2 1.3600000000000003 1.3600000000000003 2 4.9917578523830777 2.2592846060414438 2 8.208290374801587 9.9111846640041303 2 12.757051054278712 19.267423054018444 2 15.671762288107708 4.5575582897841347 2 17.109137155047534 13.733036096075759 2 20.525155513310228 1.4800000000000004 2 24.475440156631219 19.564218461843815 2 33.834836477455319 17.025826143510042 2 26.57331018220993 1.9716787961975912 2 33.924731003252532 2.3178473068800778 2 36.889782511968832 6.0845183206692592 2 40.320742473587231 6.6100664460620377 2 43.767493190627384 2.0983147771223702 2 46.842429395874184 7.2430502072732361 2 56.715154062382446 3.2693382598437335 2 58.359338802392706 8.1409364286275299 2 63.386878971087889 15.734819397038274 2 67.803355710332809 2.1434239514938724 2 73.220175402093602 1.7819951881491154 2 77.623459442617786 13.706193798195853 2 75.845752014543208 1.3600000000000003 2 84.287513181687402 4.2455934923562397 2 86.591024318604298 17.934974497374657 2 93.434918177233342 11.63297217513478 2 96.873678786479999 4.2943019277580099 2 1.3600000000000003 13.425081621898981 2 5.144848940663409 11.683369173389629 2 8.8348635166703549 4.9698759210250012 2 11.859987694300909 13.514069437636065 2 19.099456145751152 6.0576131701053191 2 20.548640753383509 14.0961008723601 2 21.872578945227463 4.6288254009251366 2 28.784306256798128 15.120580803401273 2 30.608049623864723 4.2168671175645915 2 32.864006295694729 12.484690622988426 2 36.921049173545299 10.082167905991579 2 42.306254328234715 14.297747681670025 2 45.043227902782029 14.009064578313101 2 50.261107894677224 4.8927504796357786 2 58.506550706113948 19.744502972132548 2 62.657438529897689 12.407523962303118 2 66.694811508273546 18.946091928953102 2 69.83953053441877 16.128263627719516 2 73.630245175559295 5.7887779802533696 2 74.275813629424775 20.022054302803397 2 74.931536052941496 15.016454939003115 2 80.727438900187934 1.3600000000000003 2 83.651713340514974 12.308242612000777 2 87.576048627505543 3.0606520101861858 2 94.231210105897972 2.759670021358783 2 96.036544828241915 14.398255391779301 2 1.3600000000000003 4.4099507630524037 2 2.658213218292266 4.754636449514023 2 8.9533907924975331 16.184188379143166 2 15.663670725942826 1.3600000000000003 2 22.341682247105233 8.0734131448356212 2 26.832445474847148 2.4540068837425499 2 25.581074257013174 11.69766496995676 2 38.060637389835811 15.569821027761193 2 31.887491355415371 2.0200302179451928 2 39.463016754572841 1.4800000000000004 2 43.997804016757073 1.3600000000000003 2 43.120737606478471 5.8899521654061893 2 50.442030477045257 1.4800000000000004 2 55.020514591106775 6.6938099003747027 2 59.783906561917739 3.6409727076461538 2 64.725703818049894 12.026124992798495 2 70.437595172700327 3.4805689875733159 2 82.532428893100573 19.193620256517633 2 81.511446377299777 4.1436459210632322 2 88.05001586094248 18.939078626932641 2 90.48808173535528 2.025551893443065 2 98.52 1.8201615143387377 2 11.68824460202941 5.4231205681084331 2 32.247272533345722 9.9052573813158542 2 44.015612721665612 7.8448612568320817 2 76.144736942609569 9.8662706808400884 2 77.384551586389733 9.0810108628468349 2 77.359313783126566 3.9590239139005101 2 23.24577816649969 1.7325643505909667 2 64.171228539370162 8.5176330162320877 2 67.257373554323379 10.08856174332249 2 79.683892237959867 6.8327323964501963 2 12.184378326848973 4.6612068234815993 2 26.755199476147485 8.6969292974512733 2 62.947963039971569 5.4962453248504346 2 66.365752844022012 4.6475032880792817 2 10.119189368326708 8.0519743711660254 2 15.495613618061796 9.1839864200378276 2 33.407066332102723 4.9817885016491896 2 61.630865921280709 6.8416759889650809 2 67.389963287387815 6.7241976012980338 2 69.083918703355153 5.0151612998500745 2 74.314333168057829 4.9196575876530932 2 77.865685079308449 12.766342324553587 2 2.095030176807243 9.9184162808688558 2 12.749352292401893 1.4800000000000004 2 29.661037397717127 8.4874361139348586 2 29.243624156079889 17.870664104439111 2 33.967996022573971 7.198381954230908 2 46.127411494505246 8.804309259959469 2 49.399978408607787 
[...]
<PointData>
<DataArray Name="Points" NumberOfComponents="3" format="ascii" type="Float32">1.4800000000000004 9.7043406925963893 2 4.9620360996022148 8.084365662950491 2 7.6381778966680614 1.3600000000000003 2 13.278663671386539 1.4800000000000004 2 12.81051695026585 8.1937845765500512 2 16.25992014692622 9.1961286226205168 2 19.847994566801628 8.0506312546953396 2 24.552212288180382 10.536134027164398 2 29.139620595305935 8.8204907938781663 2 29.536804623740352 19.351018311630288 2 33.77714174959597 10.294723078869811 2 34.965752875514809 7.2466788048210011 2 38.755285265296315 11.95692318343974 2 42.355811710545794 7.7695261057563245 2 46.215533181991177 9.3686424777357828 2 49.086090623155641 9.9023385110585309 2 56.64934711415367 9.1977324298173393 2 59.312027800209101 18.279494802579329 2 60.499183913854203 2.161829963128052 2 64.373198475592901 2.0861872984914402 2 69.322140845213539 18.660218418897504 2 70.086237305069886 8.9227243521644599 2 73.793636519275523 8.5220617309365529 2 72.547285303807186 16.740117477607242 2 76.879582130609833 10.21783711668588 2 77.243685033195973 3.1853031689675664 2 83.108673666587819 6.5951688839539813 2 85.974972186140477 6.4692652270166997 2 90.179119338051962 7.9037152729056039 2 99.0 8.6105399303260324 2 2.3177069491882669 1.4800000000000004 2 5.5278629407005058 1.4800000000000004 2 7.5084987218460295 7.9003910732451832 2 10.742328041144319 17.527166983713357 2 15.931503762749355 5.0622504136313067 2 12.793404754248293 13.54956921268214 2 19.289486192690759 2.4621310582349865 2 25.745965624197179 4.75372162186419 2 25.766477509890681 16.638421676854829 2 33.346058757964542 19.726887982771029 2 27.376561219694292 1.3600000000000003 2 36.792404930457522 1.4800000000000004 2 37.810426888488642 7.0894214369067265 2 40.715952718711399 3.0882572057929916 2 46.953860227673232 1.3600000000000003 2 46.698677776142475 5.5774810587607808 2 54.44594393868379 1.4800000000000004 2 57.827914169357662 5.8988783083536074 2 64.725791800992198 8.795405187417515 2 66.527496184563731 10.91710434814236 2 63.629448849593231 16.51653297324448 2 68.000300339175794 2.5944673787049068 2 73.326308577184435 2.3451840914671971 2 80.599683790576762 14.468871699473119 2 76.462551741743667 2.5455726966193253 2 80.244988439744532 6.3469585324974966 2 84.641415458185364 1.4800000000000004 2 84.315602945500629 15.29735045916475 2 93.174860249113891 9.2651663239492166 2 96.11268876978643 4.433402269657404 2 1 16.08906728666939 2 4.8288484976277726 15.293490029581601 2 7.4266780871652909 2.5416770861418194 2 12.458417296869653 4.0272436918327594 2 10.804691606817238 11.131818352254836 2 19.787258048727615 7.3420521578832822 2 21.149728468821806 13.189230172499322 2 23.875726447157838 7.0364947863457159 2 27.457632538755238 8.8471444056820658 2 25.612595486981409 15.311598629118997 2 28.340395157030279 5.6014763152101841 2 36.098257003498702 11.446560172481549 2 38.381795095518214 9.2065604001513623 2 41.734960832907468 11.218264683305284 2 46.224575001168247 16.968911792532918 2 49.682548718368857 5.6938077506837459 2 57.257791945325124 15.313406990605182 2 59.872524356053077 10.644081949146086 2 62.298955921181417 5.7786788803507534 2 65.791347705049688 4.3203072812050314 2 68.079121573680581 13.198400760102102 2 70.622027296104918 11.742826448987458 2 72.977824280330509 6.1044874274056449 2 76.959518096150859 15.148723833268098 2 73.789892995273263 12.36530729092798 2 81.289213377697834 1.3600000000000003 2 82.266001851653058 13.290849577922751 2 87.569019110962216 1.4800000000000004 2 91.810340968730785 1.4800000000000004 2 96.229446359627119 10.889962396063641 2 1.4800000000000004 7.0608021626925188 2 5.612352282921929 5.51381960308413 2 9.6623277248978514 8.5128331664917418 2 9.1266586885912702 13.006391401497382 2 16.359797489228189 1.4800000000000004 2 13.980969515285883 10.244829559796299 2 20.920923189905977 4.1320979228796739 2 23.620146860223077 1.4800000000000004 2 23.591760807482522 14.392938876415164 2 37.610529416941816 17.625410025012055 2 31.403932255891714 1.3600000000000003 2 33.430702014866363 4.4664285915121376 2 37.499826518241271 3.8016517539084349 2 41.247415821755233 2.6627150639102326 2 46.395585850363659 4.9112150535437014 2 47.848571111746161 2.6453009118876425 2 53.31172178669442 4.5140120489967606 2 57.003787348287659 1.3600000000000003 2 61.068045748208185 8.3769215431947277 2 67.989844034549321 7.0497213696721923 2 65.750004633727144 15.251375945331548 2 69.527920394763299 4.6332218848267219 2 70.987808019748286 3.0915226672909606 2 78.025395336212114 21.214537079371187 2 76.222586380004245 6.1950950113717109 2 80.19363235712558 10.270604403603318 2 83.62196271280844 5.481399388412358 2 86.064241860059681 11.840222838459432 2 93.135231289338265 6.1531801495757446 2 95.302006890387489 1.4800000000000004 2 3.4042280196102799 12.932211711758777 2 3.5440592678843834 10.921043898982287 2 10.356494168534956 2.3160806808657695 2 11.188813854630258 1.3600000000000003 2 17.088584399967381 12.086491798808837 2 19.689844273300416 11.185039450237293 2 25.60620519823615 5.2540274258320725 2 28.886850067511208 12.039551654221933 2 30.840488067044951 14.104731134164908 2 33.321037118343071 6.9500064479496189 2 39.691751862083713 15.295852895201964 2 44.272303387679777 11.509143528521378 2 50.331446848943237 12.586099372877646 2 55.973774671618777 13.67018698869339 2 59.563227079848645 13.27177181833332 2 60.543887933841525 1.3600000000000003 2 64.058167033498435 1.3600000000000003 2 72.47788627620487 19.725122440393239 2 70.194160732283208 11.255832537941684 2 72.338952822242533 14.694389737508491 2 81.540491826864653 8.9271529600317905 2 85.748383309578259 8.1445583994415589 2 90.041951544187455 5.2390210314288401 2 97.477627273557118 6.5150322186506289 2 1.3600000000000003 1.3600000000000003 2 4.9917578523830777 2.2592846060414438 2 8.208290374801587 9.9111846640041303 2 12.757051054278712 19.267423054018444 2 15.671762288107708 4.5575582897841347 2 17.109137155047534 13.733036096075759 2 20.525155513310228 1.4800000000000004 2 24.475440156631219 19.564218461843815 2 33.834836477455319 17.025826143510042 2 26.57331018220993 1.9716787961975912 2 33.924731003252532 2.3178473068800778 2 36.889782511968832 6.0845183206692592 2 40.320742473587231 6.6100664460620377 2 43.767493190627384 2.0983147771223702 2 46.842429395874184 7.2430502072732361 2 56.715154062382446 3.2693382598437335 2 58.359338802392706 8.1409364286275299 2 63.386878971087889 15.734819397038274 2 67.803355710332809 2.1434239514938724 2 73.220175402093602 1.7819951881491154 2 77.623459442617786 13.706193798195853 2 75.845752014543208 1.3600000000000003 2 84.287513181687402 4.2455934923562397 2 86.591024318604298 17.934974497374657 2 93.434918177233342 11.63297217513478 2 96.873678786479999 4.2943019277580099 2 1.3600000000000003 13.425081621898981 2 5.144848940663409 11.683369173389629 2 8.8348635166703549 4.9698759210250012 2 11.859987694300909 13.514069437636065 2 19.099456145751152 6.0576131701053191 2 20.548640753383509 14.0961008723601 2 21.872578945227463 4.6288254009251366 2 28.784306256798128 15.120580803401273 2 30.608049623864723 4.2168671175645915 2 32.864006295694729 12.484690622988426 2 36.921049173545299 10.082167905991579 2 42.306254328234715 14.297747681670025 2 45.043227902782029 14.009064578313101 2 50.261107894677224 4.8927504796357786 2 58.506550706113948 19.744502972132548 2 62.657438529897689 12.407523962303118 2 66.694811508273546 18.946091928953102 2 69.83953053441877 16.128263627719516 2 73.630245175559295 5.7887779802533696 2 74.275813629424775 20.022054302803397 2 74.931536052941496 15.016454939003115 2 80.727438900187934 1.3600000000000003 2 83.651713340514974 12.308242612000777 2 87.576048627505543 3.0606520101861858 2 94.231210105897972 2.759670021358783 2 96.036544828241915 14.398255391779301 2 1.3600000000000003 4.4099507630524037 2 2.658213218292266 4.754636449514023 2 8.9533907924975331 16.184188379143166 2 15.663670725942826 1.3600000000000003 2 22.341682247105233 8.0734131448356212 2 26.832445474847148 2.4540068837425499 2 25.581074257013174 11.69766496995676 2 38.060637389835811 15.569821027761193 2 31.887491355415371 2.0200302179451928 2 39.463016754572841 1.4800000000000004 2 43.997804016757073 1.3600000000000003 2 43.120737606478471 5.8899521654061893 2 50.442030477045257 1.4800000000000004 2 55.020514591106775 6.6938099003747027 2 59.783906561917739 3.6409727076461538 2 64.725703818049894 12.026124992798495 2 70.437595172700327 3.4805689875733159 2 82.532428893100573 19.193620256517633 2 81.511446377299777 4.1436459210632322 2 88.05001586094248 18.939078626932641 2 90.48808173535528 2.025551893443065 2 98.52 1.8201615143387377 2 11.68824460202941 5.4231205681084331 2 32.247272533345722 9.9052573813158542 2 44.015612721665612 7.8448612568320817 2 76.144736942609569 9.8662706808400884 2 77.384551586389733 9.0810108628468349 2 77.359313783126566 3.9590239139005101 2 23.24577816649969 1.7325643505909667 2 64.171228539370162 8.5176330162320877 2 67.257373554323379 10.08856174332249 2 79.683892237959867 6.8327323964501963 2 12.184378326848973 4.6612068234815993 2 26.755199476147485 8.6969292974512733 2 62.947963039971569 5.4962453248504346 2 66.365752844022012 4.6475032880792817 2 10.119189368326708 8.0519743711660254 2 15.495613618061796 9.1839864200378276 2 33.407066332102723 4.9817885016491896 2 61.630865921280709 6.8416759889650809 2 67.389963287387815 6.7241976012980338 2 69.083918703355153 5.0151612998500745 2 74.314333168057829 4.9196575876530932 2 77.865685079308449 12.766342324553587 2 2.095030176807243 9.9184162808688558 2 12.749352292401893 1.4800000000000004 2 29.661037397717127 8.4874361139348586 2 29.243624156079889 17.870664104439111 2 33.967996022573971 7.198381954230908 2 46.127411494505246 8.804309259959469 2 49.399978408607787 10.477257941979126 2 56.359324276486788 11.895940440227312 2 67.812292390214608 19.888183046318019 2 70.457265089509718 8.5963240825289144 2 85.863065611431722 7.2340324840636585 2 89.299822767596424 5.5659999064164198 2 96.535217180801325 10.148706377494893 2 2.153524104410161 2.2031996675250825 2 5.050229765158246 1.4800000000000004 2 10.33617203063479 20.023263666835515 2 14.525665015709773 12.877088429919283 2 26.243173724417161 18.154439729221302 2 32.610720267871898 16.80974115249558 2 37.334369438448384 1.4800000000000004 2 41.435357446161433 3.2208378811171934 2 53.870267223807645 1.4800000000000004 2 59.39959585586903 4.3307627968091849 2 64.193992814760179 18.500685446214675 2 84.895659586913141 2.6824722439247224 2 82.88233122312792 17.753545643094181 2 92.818481657128544 8.7676704118411077 2 94.464492129107782 6.6220872867094487 2 1 17.633825812824412 2 6.6479501122877291 13.68113956139883 2 11.146002366581113 10.686504787730266 2 21.665630995037532 11.170946223972003 2 28.050106445627872 5.2476000798294038 2 37.671072852649836 9.7416526016647751 2 45.444952297668209 18.635189188556467 2 77.280039984941538 16.292405957978911 2 81.616895006813721 13.910758759820782 2 85.050892709137813 1.9113833708290333 2 91.300977827705054 1.4800000000000004 2 98.52 11.637235735823575 2 1.4800000000000004 7.5871561389980995 2 17.282379290762002 2.2987802984892451 2 23.99772645233341 1.4800000000000004 2 23.006777184192732 15.297788100006011 2 36.049953658652939 17.002323060969182 2 53.255853122700749 3.7934225730475224 2 78.982469545669431 18.661946172851515 2 86.526217015534058 14.249100875159018 2 92.54652194177585 5.7186193948756259 2 95.891950027360849 1.4800000000000004 2 34.524149980695128 7.5442190128289246 2 41.495666503635803 14.395378467649664 2 48.418668208456907 12.767967820152778 2 56.579977742599894 12.749195515652961 2 73.150911557212609 21.245203884007314 2 80.884917564302555 9.4203217943616977 2 86.094275203174377 9.2596505789265713 2 14.685971077299724 16.283682202621716 2 16.631624266179962 16.374187540448506 2 20.015062514208346 1.4800000000000004 2 27.952445474487945 19.920795662062748 2 35.552372613941486 19.2508752488765 2 40.096149570965892 6.2186108198211487 2 56.988978136724192 3.9365692684487357 2 61.060861872696528 9.0575482512071748 2 61.850227202880454 19.926675343084209 2 83.679907948235908 16.512149109415986 2 5.7985923562739892 11.595847425516871 2 12.632464703594289 15.895070875835456 2 19.607924000096247 15.491849191833726 2 30.858450700297219 4.5855540386165972 2 38.287184443380411 7.903553802267286 2 44.672427823092377 15.032945989955074 2 46.461330058814269 12.79242267810992 2 57.579078843352924 18.249592222606111 2 62.384952338635301 12.905951048689369 2 65.556786300953874 20.65224758486703 2 74.672145260734453 17.701498153983763 2 84.061142555903061 11.628793895384803 2 87.641163277313993 2.2956176336273071 2 94.879866592937972 2.7241733541954143 2 95.219560940965593 16.083930652210412 2 9.5285979252244513 13.560236323914188 2 24.919529137957454 11.451086755279182 2 38.909142254585987 1.4800000000000004 2 49.889563738078358 1.4800000000000004 2 55.67203477338758 6.9672680673056648 2 80.617099963914512 19.886304980891691 2 87.927019767171018 15.365602241496457 2 98.52 1.4800000000000004 2 4.2498352861879951 7.8088040837081412 2 7.6378000471638225 2.1151977479462887 2 15.897910135949099 8.6545660683523451 2 19.462618295386488 8.5818450387419336 2 24.357722991944094 9.8040091008176429 2 39.53420762089717 11.861821979032474 2 60.747072972987347 16.34918210165381 2 60.040133181636811 1.3600000000000003 2 64.941198662002193 1.6396700612280832 2 72.434155881349852 15.757681752632084 2 82.955735346790519 8.0659128871339849 2 7.4039650327982063 7.3799002808688829 2 15.98612200805988 5.6648693580413827 2 18.657943519220268 2.8662659875897303 2 28.449504027511811 2.1747432186098012 2 37.382312795489923 6.5004048568584434 2 46.450105974685833 1.3600000000000003 2 46.759487240748967 6.4826971014264041 2 67.369899953890368 2.4109897643175979 2 72.879556321518265 2.4956781014274729 2 79.723151881308183 15.223233587969903 2 75.960447930910419 2.176179664570181 2 7.4306966425925287 3.1352201282240331 2 18.884447064963506 8.6557433435009656 2 24.482152120363022 7.0842524188252538 2 26.117957277089722 14.476009002519813 2 35.07716185507855 12.579865039424371 2 41.366630067325907 10.739905483923254 2 49.26554759599918 6.8100517138341452 2 59.25271187850575 15.54827218010281 2 59.703528916989207 10.078586669332173 2 68.60865306773141 13.264903865888986 2 71.225898171873638 12.650425233205135 2 74.40886311382296 5.5975945220930763 2 73.67800314355415 11.841176161323769 2 80.080423003572363 1.3600000000000003 2 5.0870125228124063 5.1836040872942482 2 7.2197932920874122 13.134888114774464 2 21.263433913396227 4.5901756690876514 2 31.991847319163302 1.3600000000000003 2 37.065568527418236 3.3898978612056165 2 39.784323729480128 2.2765619543965192 2 46.077145048486727 4.3993419437913062 2 48.273229632602565 3.086652101430253 2 56.767270303339501 2.5684539342542712 2 65.753017016255512 14.643925386665721 2 70.876799569032457 2.4735259601934372 2 83.51498149542391 6.1243324469570402 2 3.2209783922675022 13.633133194580967 2 4.8234736226395949 7.5172623116686763 2 10.325955001661692 2.8681111687572134 2 10.492177107188015 1.3600000000000003 2 17.972934628887842 13.355442182821793 2 19.146997496108686 11.608608215682592 2 25.053694347687344 6.9119889071715512 2 28.54789830675421 11.639003028295862 2 32.135884827376749 12.419133714828362 2 44.386143577883296 10.932998788752283 2 59.296179094110322 14.048099559734103 2 61.072469389213801 1.3600000000000003 2 64.545657728616888 1.3600000000000003 2 69.944289014575347 10.646383900799833 2 71.718580803439323 13.644482762303273 2 91.957003732879912 5.9346409506260205 2 97.015795540936395 7.0735733065854536 2 2.6171689950551538 2.0916187890608899 2 4.7803756070196934 2.7667525201945051 2 7.6957545265590719 9.7933984564606451 2 15.289595659559781 5.3091258346338543 2 26.622036686880744 1.3600000000000003 2 32.650894067751196 1.6996084048457811 2 35.617917289900483 3.3433723509856645 2 43.68528694567344 2.6226633533354704 2 49.109793849374022 7.4636538565855863 2 66.966312195795098 1.3600000000000003 2 70.79124681150688 1.3600000000000003 2 79.284377853503628 14.67170212035492 2 76.401718001121935 1.3600000000000003 2 84.799301265815245 4.0243365059267999 2 95.935627226573089 11.84182130030123 2 96.69631630890656 5.0143512347237831 2 1.3600000000000003 12.588757189562601 2 9.1491621759774873 5.4443183640322319 2 18.66943130562051 5.7273550619735829 2 21.787471822647635 5.2214326489224279 2 30.503479861360425 14.786185467558443 2 33.028122098883308 14.987523162651305 2 50.682244562485437 4.3159476594485886 2 69.905675707340464 16.938554980779518 2 72.533749521553659 6.5002759776992844 2 74.795891800510276 15.811987330854276 2 80.405616947341059 1.9607936604743299 2 1.3600000000000003 4.9705631243626485 2 2.1311908834653552 4.7528543104687282 2 17.03949941144117 1.3600000000000003 2 21.962653436803553 8.4337328850465347 2 28.720230753500001 1.3600000000000003 2 36.994327641849104 13.828176062694169 2 34.431565879486477 2.2790742240134603 2 43.466459679058666 1.3600000000000003 2 43.5982478559702 5.6654022599703868 2 59.234032677503627 3.8134853053387183 2 65.799698216735905 10.162911575079681 2 72.312545641706834 2.5321753210941371 2 81.355366923452777 3.7031430770158025 2 89.52907726007777 1.9908174699462069 2 13.340655320309596 8.1380506115940889 2 31.612411194764512 9.8816080846550776 2 41.981634521664425 8.2805824609081604 2 73.309371684783372 8.7802805267282817 2 76.250209861702402 10.569934040293179 2 77.819236359827315 3.5022834175223476 2 25.701041717339198 5.8716153313562307 2 64.914444345461348 9.4635175680959041 2 65.455986215152521 12.30571948905928 2 79.279263749086553 7.314884622429294 2 13.032804399624663 4.0342279253922451 2 26.327488665297526 9.1402914777379003 2 62.320598771922704 6.4563279279789283 2 65.349888229676296 4.5103327027351705 2 8.6064977968779068 6.7699920830093188 2 14.460226082812341 11.292278937021438 2 34.217274105326553 4.7747922249797083 2 60.958041077804054 6.708578313101591 2 67.442414256865504 7.4085504320376963 2 68.108204615504079 5.6212298477230407 2 76.795307142319899 6.6496856929107642 2 80.190873192990509 9.543517535519964 2 12.434228066620198 5.4265289408765351 2 33.114368397480199 10.187990134227576 2 43.092826781301895 7.8813618119354132 2 75.530015720809104 9.3294610971759067 2 76.087664196769268 8.0540423538703827 2 76.741309152422474 3.5120651505898173 2 23.59034999464405 2.7399185020231265 2 64.647842285446345 8.0785761815036583 2 66.681678788695521 10.326068174412457 2 79.865070712172482 6.0523465788441575 2 11.455782321568787 4.806240393564897 2 28.054493895944884 9.2117416544020649 2 62.681711857153751 5.0196981800309537 2 66.163392216767832 3.9911040164613518 2 9.7661619348536419 6.8252583241187388 2 13.683500001763219 8.8619054497327969 2 35.065783505880361 4.6286553484689703 2 62.589824416467522 7.0348505983975791 2 67.361900967636231 5.9839405033160817 2 69.873897292216611 4.1128845015521556 2 73.697764607487144 5.0979136534713705 2 78.056132856004226 12.115290611686563 2 30.862898180887601 19.830764615193726 2 99.0 10.084312250343407 2 31.948958987834857 19.145371278976043 2 1.9590474501090767 16.014766359215631 2 4.9961981838751512 16.106591395529268 2 47.132064908215661 18.159683426168289 2 38.757602573753907 18.097436619190717 2 76.885173882332921 20.148460680956131 2 86.618063696844999 12.540391728965213 2 40.130928905502714 14.540062691038536 2 14.381381409997967 19.258304392799264 2 25.378063070737948 20.761914843097099 2 85.95496781531071 19.464810695472963 2 60.153686565391816 20.472960244669245 2 75.248061453493548 19.617528058216951 2 10.045331816238264 16.47295763594061 2 84.197219925742928 19.586996430324966 2 89.821028938684009 19.465120850207207 2 9.9364142380624862 18.650063622465932 2 2.3978109970206423 17.561766175206106 2 44.021409338579367 19.715294858799144 2 72.441025890794023 22.616241397760003 2 85.182237448880812 9.51263613