<?xml version="1.0" ?>
<VTKFile byte_order="LittleEndian" type="UnstructuredGrid" version="0.1">
<UnstructuredGrid>
<Piece NumberOfCells="0" NumberOfPoints="181">
<Points>
<DataArray NumberOfComponents="3" format="ascii" type="Float32">40.566878976100369 17.862759819824554 2 54.30333721093163 11.589013329334534 2 86.851439515517924 11.442752911622419 2 90.3658308503135 10.048410384445669 2 91.139906337514731 14.622970222797408 2 92.612972329746157 16.547918217702151 2 21.815701634484427 16.097664332158196 2 47.27317018451182 15.911469010467405 2 52.686844153982534 19.836573456928509 2 84.063772822350344 9.1346285092538171 2 87.763099907955635 5.3094814960635333 2 98.6 9.3874574245824949 2 3.2196788630342912 16.362767986431837 2 18.412357057832988 16.895759963454672 2 52.531025899494658 6.2849405110787639 2 51.280458871321855 12.225274853574293 2 51.962169053805766 11.322985744896467 2 88.965756959267594 17.381074815711262 2 91.206690998172434 10.484953310359677 2 93.723627303006836 17.334994139540154 2 98.6 6.9654900438866205 2 5.4149579380960118 19.156177501649129 2 22.033369239845978 19.553050327065819 2 51.438094911564335 17.327005537691111 2 51.764022991960069 13.861604295260211 2 57.268784853520806 5.692062558013915 2 99.0 15.322747391191786 2 37.761084247151118 12.315840072585642 2 42.108482094358983 19.595112596846928 2 51.552675549741743 8.9271198381752992 2 58.134220839085948 7.6569254070792043 2 88.867788432191816 9.9332961604329721 2 90.154586602737112 11.793941130212612 2 91.297071953060808 17.556116568992074 2 92.198587221486505 11.990286073939219 2 7.5993782297273409 16.155680566438324 2 24.14467469733173 15.802570874935297 2 22.225690306655828 10.824025896735554 2 48.54333145845667 15.213627407932904 2 51.679431132384835 1.4 2 52.87755053304295 1.2 2 55.509701032343088 17.105733861677479 2 5.6647636146466942 4.9410654653541242 2 17.178572568133795 19.790960392690383 2 36.460253021809365 10.747028631030654 2 39.549205559768239 19.524482179578659 2 52.739302003981614 8.4275922348247452 2 53.49711299543177 9.1722460382639799 2 57.422801670962698 4.9258224251745997 2 87.924244729416145 7.9534656831489841 2 88.345632399653738 12.482675495222509 2 98.625276497565878 16.950658281498011 2 99.0 4.8602899414484266 2 8.1782532420080081 17.901482387901169 2 20.071634151577662 19.37258493646253 2 50.576023166589785 18.758424587481031 2 55.091588359784524 15.694209240581506 2 84.092611889030849 10.53032371223067 2 96.688584404024354 15.5580001656612 2 41.523013554980302 16.675868915132714 2 54.316569266848745 13.356955100754131 2 55.103136317209639 8.9927872452724262 2 88.067583110509048 11.481044113272628 2 90.142390125142612 8.9110508132933735 2 90.302720129523266 13.279746619967691 2 93.703980288900439 14.194616628000768 2 20.709381187903833 15.765801690587056 2 48.656779026881495 17.324080588831805 2 54.410490783294541 17.655627655689859 2 3.6837577530734098 19.206278077450794 2 49.940723635982749 13.912062736674535 2 52.843516785898814 10.243915007552577 2 53.658285233107151 8.1691432753634086 2 87.041105616536825 9.7163626773391858 2 89.125915590755454 14.691826269662839 2 92.807641111916141 13.694808146811289 2 95.551763566173051 19.761718661690129 2 99.0 5.5789763397520575 2 4.9417785016907798 17.424497230500265 2 22.485239570292112 17.211236783757823 2 52.414686815167556 16.766829754024116 2 53.123817629161358 5.468879100408583 2 52.51198784870796 13.015904491300745 2 85.754187128711933 13.395724914674142 2 89.254977426530672 2.6879377932831154 2 88.384721949017376 5.8036266391972005 2 37.49590947331091 13.196840268047762 2 44.165719266718725 17.556647755146653 2 52.515291191122301 7.231112487317624 2 55.06650508707888 14.355962017142097 2 56.120836402017318 8.7897304334400097 2 89.047979907997004 11.42556388096161 2 89.455252005930745 12.843698064949162 2 91.981273319405773 19.442047530256641 2 93.044105019215664 10.775732559155786 2 23.646636047675653 17.399638116095705 2 51.122671388248435 15.57741030062717 2 52.288676550551706 1.4 2 56.270158224031299 19.212573135248388 2 83.859271579843224 9.8009228742795997 2 98.745478765055921 13.987700694841426 2 15.930319262167224 18.579095313101273 2 52.039093126318228 9.6851565719144865 2 54.934032825749313 10.069521042226619 2 88.041937016571623 6.6181644892892431 2 90.804771607939628 8.085780053002626 2 97.399579236177573 19.787908176398282 2 8.2249338388398154 20.286526151673279 2 20.783117459612704 17.803900140303419 2 47.697360927143102 19.923339025199734 2 53.709948097805352 6.731063516748117 2 53.109095389519666 14.46759293896492 2 87.954812261268785 9.0906066923380191 2 96.155935109255125 17.014129829834424 2 6.5149026653179849 16.664764811121305 2 39.697246358444566 16.790902575705392 2 53.349750335553082 13.195608728145643 2 86.321007575431906 10.630544203850301 2 91.707644766441845 15.756977246937959 2 90.482767443222656 16.19771430067825 2 54.501047546101923 19.374517083245308 2 3.6033317426644769 15.617316120645135 2 19.027081686663674 18.433780170222438 2 90.114951799079876 17.843095364168569 2 92.013289819309506 10.646362454458105 2 94.942680535104273 17.99602204949079 2 6.585978805197648 18.37859575037514 2 22.746034892018404 20.964048293116615 2 50.305719060069805 17.002773743518823 2 52.084669887697522 14.940686140122184 2 97.724761477827983 14.418050067768524 2 42.412571475064659 18.052803761990617 2 88.957838402077854 8.7245156045410521 2 91.104715390595118 11.700040933570758 2 92.385121121089838 18.158356749944154 2 92.633190382262029 12.796962696874457 2 56.377152223663067 16.201741000719831 2 17.697964702705605 18.403792918580187 2 37.764710266691168 19.714760527564504 2 51.693002193094031 7.912214875189802 2 53.898219915963921 10.008683557531235 2 98.97084606041696 18.269755328735801 2 8.4512491926786897 18.967804844931909 2 20.221850161055869 21.003015272843946 2 50.729771426975617 20.498805530707145 2 53.992296895837889 14.847665565767986 2 97.719175421071768 16.044537885649405 2 42.729515341434102 16.51490762519612 2 54.469964931497387 12.472239161632908 2 87.759142856722221 10.589700252999958 2 91.784368129970858 13.9331827181582 2 92.880130703262921 15.17536298638529 2 49.612698284204775 16.044354123347905 2 53.017586990270843 18.175590461999377 2 1.9175143380255955 19.182483474579406 2 53.208762488812262 11.989231831117152 2 54.344349354794069 8.7681444365842314 2 90.083533298564106 14.721023158239257 2 91.233559850677835 12.799455566445831 2 93.834176106736294 19.242322774322847 2 99.0 6.5448637753676593 2 3.850782444536728 17.55250954498587 2 22.088193116712002 18.323520491675126 2 53.002884927190806 15.983768727818996 2 53.302891035478687 11.149271045800594 2 43.963679194231581 16.249975070590725 2 89.578433957534614 10.620053063596558 2 88.596112508404161 13.687702849581735 2 92.748458512390286 20.861513813624363 2 23.727287764007073 18.568627405642196 2 50.45526726365047 14.644427150933 2 55.729406224837902 20.880958372381766 2 99.0 13.140534760364588 2 15.556367220677485 17.210833795046835 2 54.594766655370208 10.722201533939673 2 99.0 19.915845609856614 2 6.8724160602827489 21.255877128300099 2 19.755856671089898 17.187971225439618 2 48.842353824504634 18.668984905878915 2 54.111544279441823 16.249253292269891 2 97.051214985926293 18.123690152264505 2 </DataArray>
</Points>
<Cells>
<DataArray Name="connectivity" format="ascii" type="Int32">0</DataArray>
<DataArray Name="offsets" format="ascii" type="Int32">0</DataArray>
<DataArray Name="types" format="ascii" type="UInt8">1</DataArray>
</Cells>
<PointData>
<DataArray Name="Points" NumberOfComponents="3" format="ascii" type="Float32">40.566878976100369 17.862759819824554 2 54.30333721093163 11.589013329334534 2 86.851439515517924 11.442752911622419 2 90.3658308503135 10.048410384445669 2 91.139906337514731 14.622970222797408 2 92.612972329746157 16.547918217702151 2 21.815701634484427 16.097664332158196 2 47.27317018451182 15.911469010467405 2 52.686844153982534 19.836573456928509 2 84.063772822350344 9.1346285092538171 2 87.763099907955635 5.3094814960635333 2 98.6 9.3874574245824949 2 3.2196788630342912 16.362767986431837 2 18.412357057832988 16.895759963454672 2 52.531025899494658 6.2849405110787639 2 51.280458871321855 12.225274853574293 2 51.962169053805766 11.322985744896467 2 88.965756959267594 17.381074815711262 2 91.206690998172434 10.484953310359677 2 93.723627303006836 17.334994139540154 2 98.6 6.9654900438866205 2 5.4149579380960118 19.156177501649129 2 22.033369239845978 19.553050327065819 2 51.438094911564335 17.327005537691111 2 51.764022991960069 13.861604295260211 2 57.268784853520806 5.692062558013915 2 99.0 15.322747391191786 2 37.761084247151118 12.315840072585642 2 42.108482094358983 19.595112596846928 2 51.552675549741743 8.9271198381752992 2 58.134220839085948 7.6569254070792043 2 88.867788432191816 9.9332961604329721 2 90.154586602737112 11.793941130212612 2 91.297071953060808 17.556116568992074 2 92.198587221486505 11.990286073939219 2 7.5993782297273409 16.155680566438324 2 24.14467469733173 15.802570874935297 2 22.225690306655828 10.824025896735554 2 48.54333145845667 15.213627407932904 2 51.679431132384835 1.4 2 52.87755053304295 1.2 2 55.509701032343088 17.105733861677479 2 5.6647636146466942 4.9410654653541242 2 17.178572568133795 19.790960392690383 2 36.460253021809365 10.747028631030654 2 39.549205559768239 19.524482179578659 2 52.739302003981614 8.4275922348247452 2 53.49711299543177 9.1722460382639799 2 57.422801670962698 4.9258224251745997 2 87.924244729416145 7.9534656831489841 2 88.345632399653738 12.482675495222509 2 98.625276497565878 16.950658281498011 2 99.0 4.8602899414484266 2 8.1782532420080081 17.901482387901169 2 20.071634151577662 19.37258493646253 2 50.576023166589785 18.758424587481031 2 55.091588359784524 15.694209240581506 2 84.092611889030849 10.53032371223067 2 96.688584404024354 15.5580001656612 2 41.523013554980302 16.675868915132714 2 54.316569266848745 13.356955100754131 2 55.103136317209639 8.9927872452724262 2 88.067583110509048 11.481044113272628 2 90.142390125142612 8.9110508132933735 2 90.302720129523266 13.279746619967691 2 93.703980288900439 14.194616628000768 2 20.709381187903833 15.765801690587056 2 48.656779026881495 17.324080588831805 2 54.410490783294541 17.655627655689859 2 3.6837577530734098 19.206278077450794 2 49.940723635982749 13.912062736674535 2 52.843516785898814 10.243915007552577 2 53.658285233107151 8.1691432753634086 2 87.041105616536825 9.7163626773391858 2 89.125915590755454 14.691826269662839 2 92.807641111916141 13.694808146811289 2 95.551763566173051 19.761718661690129 2 99.0 5.5789763397520575 2 4.9417785016907798 17.424497230500265 2 22.485239570292112 17.211236783757823 2 52.414686815167556 16.766829754024116 2 53.123817629161358 5.468879100408583 2 52.51198784870796 13.015904491300745 2 85.754187128711933 13.395724914674142 2 89.254977426530672 2.6879377932831154 2 88.384721949017376 5.8036266391972005 2 37.49590947331091 13.196840268047762 2 44.165719266718725 17.556647755146653 2 52.515291191122301 7.231112487317624 2 55.06650508707888 14.355962017142097 2 56.120836402017318 8.7897304334400097 2 89.047979907997004 11.42556388096161 2 89.455252005930745 12.843698064949162 2 91.981273319405773 19.442047530256641 2 93.044105019215664 10.775732559155786 2 23.646636047675653 17.399638116095705 2 51.122671388248435 15.57741030062717 2 52.288676550551706 1.4 2 56.270158224031299 19.212573135248388 2 83.859271579843224 9.8009228742795997 2 98.745478765055921 13.987700694841426 2 15.930319262167224 18.579095313101273 2 52.039093126318228 9.6851565719144865 2 54.934032825749313 10.069521042226619 2 88.041937016571623 6.6181644892892431 2 90.804771607939628 8.085780053002626 2 97.399579236177573 19.787908176398282 2 8.2249338388398154 20.286526151673279 2 20.783117459612704 17.803900140303419 2 47.697360927143102 19.923339025199734 2 53.709948097805352 6.731063516748117 2 53.109095389519666 14.46759293896492 2 87.954812261268785 9.0906066923380191 2 96.155935109255125 17.014129829834424 2 6.5149026653179849 16.664764811121305 2 39.697246358444566 16.790902575705392 2 53.349750335553082 13.195608728145643 2 86.321007575431906 10.630544203850301 2 91.707644766441845 15.756977246937959 2 90.482767443222656 16.19771430067825 2 54.501047546101923 19.374517083245308 2 3.6033317426644769 15.617316120645135 2 19.027081686663674 18.433780170222438 2 90.114951799079876 17.843095364168569 2 92.013289819309506 10.646362454458105 2 94.942680535104273 17.99602204949079 2 6.585978805197648 18.37859575037514 2 22.746034892018404 20.964048293116615 2 50.305719060069805 17.002773743518823 2 52.084669887697522 14.940686140122184 2 97.724761477827983 14.418050067768524 2 42.412571475064659 18.052803761990617 2 88.957838402077854 8.7245156045410521 2 91.104715390595118 11.700040933570758 2 92.385121121089838 18.158356749944154 2 92.633190382262029 12.796962696874457 2 56.377152223663067 16.201741000719831 2 17.697964702705605 18.403792918580187 2 37.764710266691168 19.714760527564504 2 51.693002193094031 7.912214875189802 2 53.898219915963921 10.008683557531235 2 98.97084606041696 18.269755328735801 2 8.4512491926786897 18.967804844931909 2 20.221850161055869 21.003015272843946 2 50.729771426975617 20.498805530707145 2 53.992296895837889 14.847665565767986 2 97.719175421071768 16.044537885649405 2 42.729515341434102 16.51490762519612 2 54.469964931497387 12.472239161632908 2 87.759142856722221 10.589700252999958 2 91.784368129970858 13.9331827181582 2 92.880130703262921 15.17536298638529 2 49.612698284204775 16.044354123347905 2 53.017586990270843 18.175590461999377 2 1.9175143380255955 19.182483474579406 2 53.208762488812262 11.989231831117152 2 54.344349354794069 8.7681444365842314 2 90.083533298564106 14.721023158239257 2 91.233559850677835 12.799455566445831 2 93.834176106736294 19.242322774322847 2 99.0 6.5448637753676593 2 3.850782444536728 17.55250954498587 2 22.088193116712002 18.323520491675126 2 53.002884927190806 15.983768727818996 2 53.302891035478687 11.149271045800594 2 43.963679194231581 16.249975070590725 2 89.578433957534614 10.620053063596558 2 88.596112508404161 13.687702849581735 2 92.748458512390286 20.861513813624363 2 23.727287764007073 18.568627405642196 2 50.45526726365047 14.644427150933 2 55.729406224837902 20.880958372381766 2 99.0 13.140534760364588 2 15.556367220677485 17.210833795046835 2 54.594766655370208 10.722201533939673 2 99.0 19.915845609856614 2 6.8724160602827489 21.255877128300099 2 19.755856671089898 17.187971225439618 2 48.842353824504634 18.668984905878915 2 54.111544279441823 16.249253292269891 2 97.051214985926293 18.123690152264505 2 </DataArray>
<DataArray Name="forces" NumberOfComponents="3" format="ascii" type="Float32">0.1434366469165422 0.78216585163000818 0.0 -0.098788833410546784 0.080931646202510032 0.0 0.24001143693689048 0.22703013080910353 0.0 -0.14748644444884418 0.66011858736547058 0.0 -0.037019337283018122 0.27344115141522662 0.0 -0.046416046819008461 0.26095051284033094 0.0 -0.2308156729115351 0.69641036251304567 0.0 0.077447639197518917 0.85584263055416854 0.0 -0.18732095556125727 0.33302417057922995 0.0 0.19644846878650846 0.35630888480279743 0.0 3.9511063457675633e-05 0.12841847872187123 0.0 2.4212182117661216 0.32979600651564644 0.0 -0.043074378518950518 0.46475305177786952 0.0 -0.055980054163128901 0.39057488278082619 0.0 0.20352523653448693 0.37875015699675207 0.0 0.01312837154448844 0.18067238111093398 0.0 0.18436314001735887 0.30081461411073174 0.0 -0.27124111518991301 0.45348152234248529 0.0 -0.19068466712852444 0.40669447067790543 0.0 0.04327060424019824 0.43377097891266286 0.0 2.0549852033760274 0.20806148227125698 0.0 -0.17750368421873325 0.51896262562703066 0.0 -0.23844039971584091 0.4102570530345046 0.0 0.063121362322282965 0.50365753723304996 0.0 -0.10558753641952839 0.33819183018009147 0.0 -0.30742512878025252 0.27351657485269998 0.0 1.0173237047758701 0.29625974080245077 0.0 0.038924370344410875 0.4291623983106882 0.0 -0.16592475002493717 0.41764909481223056 0.0 0.12460684947770573 0.21609790168182974 0.0 -0.10210726938386969 0.054414239068800496 0.0 0.01070091888275948 0.37876614583093793 0.0 -0.19983804278072792 0.37778645385026977 0.0 0.0081931206232592757 0.16163389306424658 0.0 -0.53876713901398587 0.46149110252466918 0.0 -0.13044157346927682 0.75078689241725782 0.0 0.00032848128125326226 0.4970105533446334 0.0 -0.24825050392181455 0.28799051959768512 0.0 -0.034163826326638946 0.61511824950306737 0.0 -0.21350986925149551 -1.6291217481511144 0.0 -0.061547899276670121 -1.7068144077116931 0.0 -0.14385050984172576 0.57913534052445848 0.0 -0.049686966656007976 0.203345228335158 0.0 0.0026439416288531192 0.67109468502716774 0.0 -0.22832342596356783 0.37315716560958528 0.0 0.37295332360544364 0.33385293805935612 0.0 0.024470340811722169 0.31621618754444425 0.0 -0.074812121759549488 0.21290474744016483 0.0 -0.25177827111273832 0.19905955889928328 0.0 0.17461686142082466 0.56656244144425216 0.0 0.11794206481136987 0.27888797772217 0.0 0.29767256676455145 0.18809065960417509 0.0 2.6194690746455289 -0.6597159142419593 0.0 0.031568507236939325 0.39198834273955302 0.0 0.28107964919224193 0.28050933262784822 0.0 0.10328686757291858 0.25488935452430039 0.0 -0.26513419763442614 0.5341688255061029 0.0 0.20254110933235736 0.48913723813348919 0.0 0.039028769284133569 0.40953122011955334 0.0 -0.097078864473242737 0.55159832446230184 0.0 -0.0043141478944594136 0.14596719562837651 0.0 -0.088625122655429545 0.25587806001356639 0.0 0.046801413119028218 0.38916220132065549 0.0 0.067000831762863519 0.57090950988686529 0.0 -0.12091382200505774 0.40036908479245342 0.0 0.042671568486414201 0.26071255183522035 0.0 -0.20069335835725799 0.68985794638716347 0.0 -0.10037775612252611 0.4076075575760566 0.0 -0.10381980121841665 0.43961068501967138 0.0 -0.060686433866886998 0.34339130303060283 0.0 -0.083682108001451372 0.65834372796062679 0.0 0.11461713932063206 0.15398054083101814 0.0 -0.15334406739015793 0.32138839749409093 0.0 0.13469318400057917 0.54329992726700915 0.0 -0.12938287559145484 0.13671250302304838 0.0 0.022304504599526737 0.53117358187841968 0.0 0.097718876803256138 0.18025431778455503 0.0 2.187146270217752 -0.41844378487224687 0.0 -0.041448291197049958 0.69878266458081906 0.0 0.049296037952232044 0.42141553861839443 0.0 -0.052193642166824566 0.32384968885195231 0.0 -0.022782159798062911 0.086246447808005722 0.0 -0.052353361189423631 0.43085274585430389 0.0 0.31154067330564017 0.35649305529032316 0.0 0.0090937865580038579 0.045499034643677244 0.0 0.015549920653814234 0.21413796541192803 0.0 -0.027582739299822689 0.39260082736177759 0.0 0.21346128002068349 0.55129028366082333 0.0 0.13907616119734437 0.36414713986829639 0.0 -0.23154666363943643 0.58414306724810883 0.0 -0.20923140780361738 0.15026402470326716 0.0 0.020245558926999307 0.53517984336624802 0.0 -0.0090907050332021955 0.2381077669646039 0.0 -0.52133741169682968 0.30005004577539202 0.0 -0.128612988208889 0.41665170596532392 0.0 -0.18368972456721661 0.45436927548692774 0.0 0.11120055473154644 0.62001393505588087 0.0 -0.034648220255805412 -1.8965831199472851 0.0 -0.05888662635255755 0.25843430354453922 0.0 0.28274675895020374 0.37521105289114487 0.0 0.55718911031347651 0.45173880963647506 0.0 0.12592774678225105 0.53280084656708815 0.0 -0.083299764358546746 0.44372291860591895 0.0 -0.086624649059569347 0.21121791044803429 0.0 0.15630812458677851 0.2523871195886922 0.0 0.020827894835821509 0.031999180963411158 0.0 -0.1905709499784925 0.26402719139143621 0.0 0.16033634349818776 0.45111630048752138 0.0 -0.0058239506944623987 0.67716919401480746 0.0 -0.16084892947958432 0.36604283595828352 0.0 0.12050933330407743 0.10893419589228462 0.0 -0.12311370574246286 0.31113422208370273 0.0 -0.019574540987519234 0.47552499516419988 0.0 0.17339268119856799 0.26048754365048704 0.0 -0.25368063733238344 0.82185211199225572 0.0 0.14810133481768445 0.47477042050853174 0.0 -0.080387848037499904 0.34748700548391015 0.0 0.10882773157649894 0.26797148047252262 0.0 -0.144764348653425 0.26168318221315157 0.0 -0.34149884640400985 0.26318785004364265 0.0 -0.043407394081419789 0.27716504456838736 0.0 0.042979157933770995 0.4994728901909381 0.0 -0.052080409601461153 0.46049841148909043 0.0 -0.062832408080967309 0.43362197048268158 0.0 -0.26817731829982722 0.32878030553386556 0.0 0.37842455026780519 0.25212828524068337 0.0 0.19683380656326985 0.83597382895904082 0.0 0.18846419438738657 0.37918325407165449 0.0 -0.14434241903555206 0.52599324913059731 0.0 -0.019760452951061047 0.22488199196049921 0.0 0.14407835783568188 0.27138894077337006 0.0 0.16060534086751901 0.36134511066540276 0.0 -0.019376035325782741 0.20888032607096935 0.0 -0.272932997844333 0.48200173925224632 0.0 0.29760025235693577 0.21420096273385958 0.0 0.048620401194553686 0.42854579461803488 0.0 -0.078016424841877527 0.44412760818446984 0.0 -0.041106191786470125 0.44444548030238173 0.0 -0.046705527478522385 -0.022410026481375633 0.0 0.22217900644145389 0.11806856458866793 0.0 -0.022907498243937119 0.14284395597321942 0.0 0.23088923357243285 0.26590054166001476 0.0 -0.12830851542745475 0.39745735191642223 0.0 0.034849012968919721 0.36249701153296238 0.0 0.022522535683437737 0.25156606559205869 0.0 -0.27000331253791843 0.25528726798451851 0.0 0.03007101909601945 0.49771852583981474 0.0 0.044290238548991057 0.50749668795338154 0.0 -0.29627248176928822 0.24623543632302544 0.0 0.2788439245147043 0.4294713500463932 0.0 -0.051909640618774733 0.24514080874540223 0.0 -0.045042278877549524 0.35214723046109442 0.0 0.21360805413119391 0.25454625329207609 0.0 -0.13208084413068721 0.34545144151951623 0.0 -0.22345037523661926 0.46383797288802681 0.0 -0.051953613449694611 0.31139447171905776 0.0 -0.10635053937359934 0.33535192437002914 0.0 -0.017531023518420369 0.22559892511529592 0.0 -0.095415036820211629 0.33844388772204215 0.0 -0.1000549985046138 0.33575509106358858 0.0 2.7092286912100292 -0.17798641130002932 0.0 -0.10022194034128384 0.52315764593477299 0.0 -0.17385474296512715 0.42345966455669376 0.0 -0.10995354735908758 0.3091082888495898 0.0 0.056967520116137926 0.22677859468292358 0.0 -0.02859268238346413 0.51802720872306873 0.0 -0.23476360677519342 0.39180021101298584 0.0 0.11003320094756092 0.25584645144487517 0.0 0.15870230003115043 0.39044827064876242 0.0 -0.23283194042995731 0.55896358788414768 0.0 0.30560256046645218 0.49255354223921483 0.0 -0.040507767599635938 0.27810132972551771 0.0 1.6432599031978512 0.23385390870748068 0.0 -0.040024795047882256 0.3988368927389947 0.0 -0.036851597431421634 0.13429760666483728 0.0 0.40600245402123863 0.38773463270069886 0.0 -0.2759998863819067 0.2007853307078786 0.0 0.0097978656103576145 0.39282974626353684 0.0 0.24131494897599465 0.46042959223458724 0.0 -0.11558489412799267 0.48890462347726005 0.0 0.18886857102158733 0.17046577182602363 0.0 </DataArray>
<DataArray Name="radii" format="ascii" type="Float32">1 1 1 1.4 1 1 1.4 1.4 1 1.2 1 1.4 1 1 1.4 1.4 1.4 1 1 1 1.4 1 1 1 1 1.4 1 1.2 1 1.2 1.2 1 1 1 1 1.5999999999999999 1.2 1.2 1.5999999999999999 1.4 1.2 1 1.4 1 1 1 1 1 1.4 1.4 1 1 1 1 1 1 1 1.2 1 1 1 1 1 1.2 1 1 1.4 1 1 1 1.2 1 1 1.4 1 1 1 1 1 1 1 1.4 1 1.2 1.2 1.2 1.2 1 1.4 1.2 1.2 1 1 1 1.4 1 1 1.4 1 1.2 1 1 1.4 1 1.4 1.2 1 1 1 1 1.4 1 1.4 1 1.5999999999999999 1 1 1 1 1 1 1 1 1 1 1 1 1 1 1 1 1 1 1 1 1 1 1 1 1 1 1 1 1 1 1 1 1 1 1 1 1 1 1 1 1 1 1 1 1 1 1 1 1 1 1 1 1 1 1 1 1 1 1 1 1 1 1 1 1 1 </DataArray>
</PointData>
<CellData/>
</Piece>
</UnstructuredGrid>
</VTKFile>
