<?xml version="1.0" ?>
<VTKFile byte_order="LittleEndian" type="UnstructuredGrid" version="0.1">
<UnstructuredGrid>
<Piece NumberOfCells="0" NumberOfPoints="60">
<Points>
<DataArray NumberOfComponents="3" format="ascii" type="Float32">1.2 3.7223300738915572 2 5.8785187107524486 3.5524863170506844 2 10.196160631488697 1.2 2 12.48915963927376 1.2 2 12.873805288321018 3.6229778481652639 2 16.283843646987961 3.4425677438493847 2 20.57136316149316 3.2776065082919148 2 25.940972875111544 3.4736932327441976 2 28.893110180060376 3.0612317260612572 2 30.073804633009104 5.2412119981184189 2 31.319491028914001 3.2940121154641142 2 33.628795757549675 3.3078474614832927 2 38.292319954193353 3.3865019785028627 2 42.099576044567158 3.4249631340334243 2 44.449283911909873 3.3657115889263554 2 49.131856320344198 3.4293509943408305 2 57.675587712934224 3.9114615578438774 2 62.295245487612419 3.5935325402563976 2 64.478833823468747 1.2 2 66.627421569230208 1.4291169692437515 2 69.005383387001345 5.2807519243927548 2 70.548057008918974 3.4599887858408271 2 73.579672405939277 2.5453910017543033 2 73.578163762746229 6.1038900733107013 2 75.537586078546823 3.5511443769877147 2 77.692104892544108 1.2 2 80.029800688371367 3.5908527409899209 2 84.0819724306197 1.2 2 92.481274706617242 1.2 2 96.398296855863691 3.5753565661886553 2 1.2 1.2 2 5.6679256510625313 1.2 2 8.6986960301895699 3.3838977207172491 2 10.781522177358788 4.4534432590686137 2 14.792989016510665 1.2 2 14.683692276495451 5.2364758505014866 2 19.419320689577344 1.2 2 27.117824839739601 1.4325510214997796 2 27.679577924512365 5.1198403832566752 2 32.146269120014601 6.5889820922886324 2 30.369468552138297 1.2029516174802795 2 32.576681368688917 1.2 2 36.976425160510523 1.2 2 41.296254393847491 1.2 2 43.444330092905226 1.2 2 47.741686023962316 1.2 2 57.993528585995833 1.2 2 62.325142061663414 1.2 2 64.629675218617848 3.610788381655702 2 68.21832052444131 3.1038626319035822 2 66.625766209122858 5.0675081021825212 2 69.650918691578426 1.30570773955561 2 71.858006003159716 1.2 2 76.397650136120461 5.6809488126220282 2 75.483567771348859 1.2 2 77.743006318272265 3.5970673940690387 2 79.852393746814585 1.2 2 84.578565801319982 3.9431745536484843 2 93.790284646663267 3.4076906426073297 2 96.696851486616026 1.2 2 </DataArray>
</Points>
<Cells>
<DataArray Name="connectivity" format="ascii" type="Int32">0</DataArray>
<DataArray Name="offsets" format="ascii" type="Int32">0</DataArray>
<DataArray Name="types" format="ascii" type="UInt8">1</DataArray>
</Cells>
<PointData>
<DataArray Name="Points" NumberOfComponents="3" format="ascii" type="Float32">1.2 3.7223300738915572 2 5.8785187107524486 3.5524863170506844 2 10.196160631488697 1.2 2 12.48915963927376 1.2 2 12.873805288321018 3.6229778481652639 2 16.283843646987961 3.4425677438493847 2 20.57136316149316 3.2776065082919148 2 25.940972875111544 3.4736932327441976 2 28.893110180060376 3.0612317260612572 2 30.073804633009104 5.2412119981184189 2 31.319491028914001 3.2940121154641142 2 33.628795757549675 3.3078474614832927 2 38.292319954193353 3.3865019785028627 2 42.099576044567158 3.4249631340334243 2 44.449283911909873 3.3657115889263554 2 49.131856320344198 3.4293509943408305 2 57.675587712934224 3.9114615578438774 2 62.295245487612419 3.5935325402563976 2 64.478833823468747 1.2 2 66.627421569230208 1.4291169692437515 2 69.005383387001345 5.2807519243927548 2 70.548057008918974 3.4599887858408271 2 73.579672405939277 2.5453910017543033 2 73.578163762746229 6.1038900733107013 2 75.537586078546823 3.5511443769877147 2 77.692104892544108 1.2 2 80.029800688371367 3.5908527409899209 2 84.0819724306197 1.2 2 92.481274706617242 1.2 2 96.398296855863691 3.5753565661886553 2 1.2 1.2 2 5.6679256510625313 1.2 2 8.6986960301895699 3.3838977207172491 2 10.781522177358788 4.4534432590686137 2 14.792989016510665 1.2 2 14.683692276495451 5.2364758505014866 2 19.419320689577344 1.2 2 27.117824839739601 1.4325510214997796 2 27.679577924512365 5.1198403832566752 2 32.146269120014601 6.5889820922886324 2 30.369468552138297 1.2029516174802795 2 32.576681368688917 1.2 2 36.976425160510523 1.2 2 41.296254393847491 1.2 2 43.444330092905226 1.2 2 47.741686023962316 1.2 2 57.993528585995833 1.2 2 62.325142061663414 1.2 2 64.629675218617848 3.610788381655702 2 68.21832052444131 3.1038626319035822 2 66.625766209122858 5.0675081021825212 2 69.650918691578426 1.30570773955561 2 71.858006003159716 1.2 2 76.397650136120461 5.6809488126220282 2 75.483567771348859 1.2 2 77.743006318272265 3.5970673940690387 2 79.852393746814585 1.2 2 84.578565801319982 3.9431745536484843 2 93.790284646663267 3.4076906426073297 2 96.696851486616026 1.2 2 </DataArray>
<DataArray Name="forces" NumberOfComponents="3" format="ascii" type="Float32">-0.074434362922569358 0.0043172119902266277 0.0 0.035376930586542593 0.013250265722039908 0.0 0.0098416592949872594 0.0 0.0 0.010464871294542988 0.0 0.0 -0.0163081169204011 0.0052541678281127074 0.0 0.021465557664800308 0.012556027294068843 0.0 0.02188693629078254 0.0072754944902375732 0.0 -0.02674844393595166 0.034013884096312105 0.0 -0.011038617753033275 0.01182554688158638 0.0 -0.0012440832951555844 0.0073149297746940905 0.0 -0.0034429444877898917 0.0045466669794840923 0.0 -0.0061880411786079045 0.010356591040720418 0.0 0.0090476010324831505 0.022014932442660538 0.0 -0.011375493076755538 0.014810629344456216 0.0 -0.0008855269356142989 0.0045895362885389384 0.0 0.019189759825222478 0.018760077290643946 0.0 0.017125133641053902 0.066323957440550405 0.0 0.0069182573583733697 0.0064255475022940867 0.0 0.0090967754684676549 -0.024415041146873994 0.0 0.015425200887235049 0.041921177673196322 0.0 0.0034082848549572588 0.015349074429390853 0.0 0.012640517486943094 0.022906682501926276 0.0 -0.01745301684527913 0.052242804982993524 0.0 -0.011943490830542063 0.069504846047944838 0.0 -0.00093622358217909651 0.023619821671662634 0.0 -0.048862914753795589 -0.0023213539385059565 0.0 0.0026148108728922398 0.0043063390399248986 0.0 -0.010929940821384321 0.0 0.0 0.0071676191416543134 0.0 0.0 -0.00073508514698092766 0.0058725161544527166 0.0 -0.16856009041126674 0.0 0.0 0.0060641933616280286 -0.041117543132990091 0.0 -0.013281101918719798 0.028863769121453362 0.0 -0.012930103585459145 0.055270448643861422 0.0 0.012169596246109053 -0.061618778724698162 0.0 0.0 0.0 0.0 0.023068287983909454 -0.021354614788490767 0.0 -0.031458350354090336 0.029806578227076289 0.0 -0.0033661825098236669 0.011999574346348168 0.0 -0.0035331775365813841 0.024110107785022771 0.0 -0.023177284802389536 0.0079831668530807604 0.0 -0.018561871745725711 -0.042489118869141716 0.0 -0.015675751970761098 0.0 0.0 -0.0076949980167969334 -0.034508243883893362 0.0 -0.0044003538427248023 -0.011268644600852754 0.0 0.0031723009673711999 0.0 0.0 -0.029269297125249699 -0.10815711434591189 0.0 -0.0031962731304359671 -0.0062350683009144521 0.0 0.0070919006286921174 0.0091972100620434337 0.0 0.015744731268037066 0.012908932802019553 0.0 0.00095648418706763792 0.042648613704775393 0.0 0.017936762122847921 0.017125725683120884 0.0 0.021840000008798571 -0.13904906251225749 0.0 0.0086957988778332447 0.021626455113432565 0.0 -0.060345150718758234 -0.014242202426402638 0.0 0.00058717985402284567 0.0053387350083938089 0.0 -0.035659886585214601 -0.0027757367206960116 0.0 0.0067969595298166402 0.038164734166718936 0.0 0.028727908674182245 0.019460174008376002 0.0 0.0028122979924021241 -0.0058725161544527166 0.0 </DataArray>
<DataArray Name="radii" format="ascii" type="Float32">1.2 1.2 1.2 1.2 1.12 1.2 1.2 1.2 1.2 1.2 1.12 1.2 1.2 1.2 1.2 1.2 1.2 1.2 1.2 1.2 1.2 1.2 1.2 1.2 1.12 1.2 1.2 1.2 1.2 1.2 1.2 1.2 1.2 1.2 1.2 1.2 1.2 1.2 1.2 1.2 1.2 1.2 1.2 1.2 1.2 1.2 1.2 1.2 1.2 1.12 1.2 1.2 1.2 1.2 1.2 1.2 1.2 1.2 1.2 1.2 </DataArray>
</PointData>
<CellData/>
</Piece>
</UnstructuredGrid>
</VTKFile>
