<?xml version="1.0" ?>
<VTKFile byte_order="LittleEndian" type="UnstructuredGrid" version="0.1">
<UnstructuredGrid>
<Piece NumberOfCells="0" NumberOfPoints="15">
<Points>
<DataArray NumberOfComponents="3" format="ascii" type="Float32">28.480052472803958 0.7 2 64.635236491285951 6.9448191890083644 2 67.237903669368805 0.7 2 72.018869368500603 7.1007677721315137 2 71.866557130247216 5.6636345756740916 2 74.060406641224546 0.7 2 14.110449590975833 4.128855375006494 2 31.327838047034259 6.6097416790578878 2 73.131103906498652 6.2793120508332452 2 66.669867009323397 3.977166173981685 2 28.563915739132426 3.4403195846869226 2 71.778492794103727 2.8950183005765751 2 71.660272934408539 4.2902430497056763 2 76.306950679982776 3.9143189465722501 2 79.31841673215375 7.0096982917565027 2 </DataArray>
</Points>
<Cells>
<DataArray Name="connectivity" format="ascii" type="Int32">0</DataArray>
<DataArray Name="offsets" format="ascii" type="Int32">0</DataArray>
<DataArray Name="types" format="ascii" type="UInt8">1</DataArray>
</Cells>
<PointData>
<DataArray Name="Points" NumberOfComponents="3" format="ascii" type="Float32">28.480052472803958 0.7 2 64.635236491285951 6.9448191890083644 2 67.237903669368805 0.7 2 72.018869368500603 7.1007677721315137 2 71.866557130247216 5.6636345756740916 2 74.060406641224546 0.7 2 14.110449590975833 4.128855375006494 2 31.327838047034259 6.6097416790578878 2 73.131103906498652 6.2793120508332452 2 66.669867009323397 3.977166173981685 2 28.563915739132426 3.4403195846869226 2 71.778492794103727 2.8950183005765751 2 71.660272934408539 4.2902430497056763 2 76.306950679982776 3.9143189465722501 2 79.31841673215375 7.0096982917565027 2 </DataArray>
<DataArray Name="forces" NumberOfComponents="3" format="ascii" type="Float32">0.014179647495512621 -0.12771461713042159 0.0 0.014585345581794709 0.0078012318548776527 0.0 -0.0080739368551069994 -0.052738087118932069 0.0 -0.025103047789994223 0.016534674775951979 0.0 -0.010052199902438747 -0.0021062722539072582 0.0 0.045587281709185863 -0.066767479080364261 0.0 0.010832019168991252 -0.0031341495812578571 0.0 -0.008864049995664874 0.021798430603826354 0.0 0.018251331943697775 0.0092590277996859142 0.0 0.0090591781566778835 0.026557442756487033 0.0 -0.020666087516084879 0.028679273359572568 0.0 0.16747561203376343 -0.004184266755054046 0.0 -0.00063530476423747544 0.010254807398225147 0.0 -0.044698784247000196 -0.0013117790859858043 0.0 0.0 0.0 0.0 </DataArray>
<DataArray Name="radii" format="ascii" type="Float32">0.7 0.7 0.7 0.7 0.7 0.7 0.7 0.7 0.7 0.7 0.7 0.7 0.7 0.7 0.7 </DataArray>
</PointData>
<CellData/>
</Piece>
</UnstructuredGrid>
</VTKFile>
