<?xml version="1.0" ?>
<VTKFile byte_order="LittleEndian" type="UnstructuredGrid" version="0.1">
<UnstructuredGrid>
<Piece NumberOfCells="0" NumberOfPoints="156">
<Points>
<DataArray NumberOfComponents="3" format="ascii" type="Float32">19.292574282082573 12.400065059469915 2 21.337638749654122 1.4 2 40.206687082110555 16.74466849142782 2 46.02525208462832 6.846377199689532 2 51.208535451903813 2.5650914343428313 2 54.300946426805687 11.555119914051296 2 57.564836449078882 8.1590431272612722 2 86.86035286964605 11.113972509521407 2 90.821616234142283 9.2139083028303226 2 91.124024324038231 14.451755350265561 2 92.55666844080659 15.279323344197591 2 98.8 2.4207793167793468 2 22.274420179160082 14.751334264126442 2 46.007965143553406 7.6900861795426483 2 47.228153145809927 14.463858255043675 2 51.787638584496655 3.8036673110108725 2 53.418948791340924 2.3677361745826562 2 53.36769591271846 18.643183849880955 2 83.603092420961957 8.516825198107254 2 87.220045298324465 5.3351823993729033 2 90.370024055076115 1 2 98.6 9.3230841600691168 2 3.1684649275837513 15.515439006119339 2 18.774526242338684 16.464131557554484 2 47.466291094970813 1 2 52.205830029529999 5.8832444063287817 2 50.915364354706057 11.945964950100672 2 51.740555980965688 10.937371000070621 2 55.161056514830051 7.2951290086312843 2 57.108458651458641 6.1502035482481263 2 85.641225293070036 9.7854867186538428 2 89.584601701242562 16.337459575850492 2 91.795924971803473 10.331918714543615 2 94.001069536621571 16.525237783640343 2 98.6 7.0573506517029676 2 5.9681402210861805 17.859527336581284 2 22.329462321131473 18.595122408839135 2 39.497038803667671 6.7220304690688621 2 51.296487726879782 16.426587121540035 2 52.689700137235654 4.2864691531439769 2 52.087745579304482 13.305543444117053 2 57.918410475167285 5.3120574859059895 2 84.263308315053266 13.179950159777606 2 86.45428013823043 1.973824868949243 2 88.99658103946112 3.9643759732135058 2 89.778385551326934 4.7625581825622136 2 98.6 14.774293992266129 2 37.645879242502247 11.787441576816594 2 42.499848652541885 18.192572504923714 2 51.127351975294516 8.5631389641153479 2 55.512203775138161 10.80148093029516 2 58.542749889736221 7.7889468370593518 2 89.324385883286212 9.1427524492909207 2 90.674064888808942 11.031498416294808 2 91.269742128243038 16.798054573874197 2 93.296813667497418 11.413529024573652 2 98.8 3.3140206994193342 2 7.3587779817485632 14.441795569012127 2 24.341214792465227 14.84775226545478 2 22.751112060506824 10.76866278901521 2 34.929267555284234 2.8024934830539356 2 49.09452270352682 14.3282618419511 2 51.678947275474478 1.4 2 53.36404122311275 1.2 2 56.155677666280937 16.000005411813593 2 3.7076382606455591 11.02752692399249 2 5.6675435837003212 4.6512817570420495 2 17.577544216994184 18.41436993419272 2 21.930754698954637 1.4 2 36.861533870015641 9.6524955361107789 2 38.67156125286683 18.431563556091156 2 52.53762286055332 8.008606196818203 2 53.84312643631219 9.32777445306305 2 57.687214333810957 4.3871868873868598 2 87.652178552806689 7.4572514914391244 2 88.131094417261693 12.619730098504311 2 98.6 16.668021842312843 2 98.6 5.1350443388974556 2 8.0896309603295968 16.972748191748419 2 19.966854929038476 18.705232937498732 2 22.082083197793395 9.8757267801565138 2 50.561973273937873 18.326332335461856 2 55.118374192906941 14.866118620693442 2 83.855882818786824 10.195983146171317 2 87.94011413304888 1.2 2 96.917996651739571 14.687532684522093 2 18.015823226214721 14.042164602667391 2 41.786656540929435 15.726592795203405 2 54.58484543906372 12.806833689532834 2 55.627526756084151 8.6068860880704019 2 88.082205391248579 10.704149111338229 2 89.935145826554177 8.1991336349428234 2 91.012337951607009 12.684011165173867 2 93.433800286935679 13.831074111039113 2 98.8 1.2 2 20.850069423052634 14.667821175716412 2 49.034459032093523 16.235063327968351 2 50.929484345177251 3.3120315838048913 2 54.15331411727287 16.767701611480611 2 84.501927741691915 8.2085263838345615 2 88.554773253015057 4.9203177289892279 2 3.4036317127633584 18.037384551274911 2 49.815959709877419 13.017367322007113 2 52.928391050021709 10.120755736559001 2 53.857291467139767 7.923873907999667 2 87.070156436601962 9.3520603851118427 2 89.553222275528356 14.450108364238663 2 92.424310375603994 12.630188365918203 2 95.024199950593299 18.657828771317583 2 98.6 6.1471008212170277 2 4.8505832543460317 15.981798978393583 2 22.571080290918928 16.406715064135707 2 52.782034001988372 15.635559004834995 2 53.146620308220385 5.4953534835118569 2 53.01153426412597 11.837569743419188 2 85.348482554801052 13.089562412076726 2 89.399129222334452 2.9011562807184461 2 88.527747132489395 5.9720286821479158 2 98.6 12.052266406095118 2 37.482472072122647 12.830341583427847 2 43.603400399599558 16.156904841741515 2 51.974022091221386 7.0369911099513116 2 55.834675260166613 13.469548644962448 2 56.847102563591207 8.8241474172061398 2 58.08898799491714 6.8203351745114986 2 89.326299339805288 10.696147230545842 2 89.523975044925962 12.559500418776306 2 92.479269900542576 18.427374434186202 2 92.995057493362665 10.216160699264957 2 24.165420149542197 16.537576391096742 2 50.914699257407911 14.471714408541414 2 52.417398393610341 1.4 2 56.106600273634484 18.522259573041921 2 83.322424420747652 9.3653729355645208 2 98.6 13.24615583328473 2 15.64232385905262 17.397956364237725 2 36.636402212472682 10.902867216949577 2 51.664111388182107 9.4318268660618099 2 55.040316190746161 9.8470139284741212 2 87.567111876208614 6.4121990622715614 2 87.469745694333696 13.822142889714639 2 91.173817023816397 7.7849698119553752 2 97.661297121829307 18.741920250466194 2 98.6 4.1903065129163215 2 8.1686454529723775 19.306103147224906 2 20.701869562910662 16.497376987343362 2 45.434400675579347 15.509445618269462 2 48.028320268079192 18.623411162666766 2 54.00871406879218 6.7148188991810303 2 53.514274233444368 14.109044134036376 2 85.001272539567879 10.911989493270402 2 88.781806960113087 1.4 2 88.439835646269017 2.3007200783352237 2 88.035264205997109 8.5715345913448395 2 96.34281010554632 16.606589570608822 2 6.7653419528468417 15.573476271828504 2 </DataArray>
</Points>
<Cells>
<DataArray Name="connectivity" format="ascii" type="Int32">0</DataArray>
<DataArray Name="offsets" format="ascii" type="Int32">0</DataArray>
<DataArray Name="types" format="ascii" type="UInt8">1</DataArray>
</Cells>
<PointData>
<DataArray Name="Points" NumberOfComponents="3" format="ascii" type="Float32">19.292574282082573 12.400065059469915 2 21.337638749654122 1.4 2 40.206687082110555 16.74466849142782 2 46.02525208462832 6.846377199689532 2 51.208535451903813 2.5650914343428313 2 54.300946426805687 11.555119914051296 2 57.564836449078882 8.1590431272612722 2 86.86035286964605 11.113972509521407 2 90.821616234142283 9.2139083028303226 2 91.124024324038231 14.451755350265561 2 92.55666844080659 15.279323344197591 2 98.8 2.4207793167793468 2 22.274420179160082 14.751334264126442 2 46.007965143553406 7.6900861795426483 2 47.228153145809927 14.463858255043675 2 51.787638584496655 3.8036673110108725 2 53.418948791340924 2.3677361745826562 2 53.36769591271846 18.643183849880955 2 83.603092420961957 8.516825198107254 2 87.220045298324465 5.3351823993729033 2 90.370024055076115 1 2 98.6 9.3230841600691168 2 3.1684649275837513 15.515439006119339 2 18.774526242338684 16.464131557554484 2 47.466291094970813 1 2 52.205830029529999 5.8832444063287817 2 50.915364354706057 11.945964950100672 2 51.740555980965688 10.937371000070621 2 55.161056514830051 7.2951290086312843 2 57.108458651458641 6.1502035482481263 2 85.641225293070036 9.7854867186538428 2 89.584601701242562 16.337459575850492 2 91.795924971803473 10.331918714543615 2 94.001069536621571 16.525237783640343 2 98.6 7.0573506517029676 2 5.9681402210861805 17.859527336581284 2 22.329462321131473 18.595122408839135 2 39.497038803667671 6.7220304690688621 2 51.296487726879782 16.426587121540035 2 52.689700137235654 4.2864691531439769 2 52.087745579304482 13.305543444117053 2 57.918410475167285 5.3120574859059895 2 84.263308315053266 13.179950159777606 2 86.45428013823043 1.973824868949243 2 88.99658103946112 3.9643759732135058 2 89.778385551326934 4.7625581825622136 2 98.6 14.774293992266129 2 37.645879242502247 11.787441576816594 2 42.499848652541885 18.192572504923714 2 51.127351975294516 8.5631389641153479 2 55.512203775138161 10.80148093029516 2 58.542749889736221 7.7889468370593518 2 89.324385883286212 9.1427524492909207 2 90.674064888808942 11.031498416294808 2 91.269742128243038 16.798054573874197 2 93.296813667497418 11.413529024573652 2 98.8 3.3140206994193342 2 7.3587779817485632 14.441795569012127 2 24.341214792465227 14.84775226545478 2 22.751112060506824 10.76866278901521 2 34.929267555284234 2.8024934830539356 2 49.09452270352682 14.3282618419511 2 51.678947275474478 1.4 2 53.36404122311275 1.2 2 56.155677666280937 16.000005411813593 2 3.7076382606455591 11.02752692399249 2 5.6675435837003212 4.6512817570420495 2 17.577544216994184 18.41436993419272 2 21.930754698954637 1.4 2 36.861533870015641 9.6524955361107789 2 38.67156125286683 18.431563556091156 2 52.53762286055332 8.008606196818203 2 53.84312643631219 9.32777445306305 2 57.687214333810957 4.3871868873868598 2 87.652178552806689 7.4572514914391244 2 88.131094417261693 12.619730098504311 2 98.6 16.668021842312843 2 98.6 5.1350443388974556 2 8.0896309603295968 16.972748191748419 2 19.966854929038476 18.705232937498732 2 22.082083197793395 9.8757267801565138 2 50.561973273937873 18.326332335461856 2 55.118374192906941 14.866118620693442 2 83.855882818786824 10.195983146171317 2 87.94011413304888 1.2 2 96.917996651739571 14.687532684522093 2 18.015823226214721 14.042164602667391 2 41.786656540929435 15.726592795203405 2 54.58484543906372 12.806833689532834 2 55.627526756084151 8.6068860880704019 2 88.082205391248579 10.704149111338229 2 89.935145826554177 8.1991336349428234 2 91.012337951607009 12.684011165173867 2 93.433800286935679 13.831074111039113 2 98.8 1.2 2 20.850069423052634 14.667821175716412 2 49.034459032093523 16.235063327968351 2 50.929484345177251 3.3120315838048913 2 54.15331411727287 16.767701611480611 2 84.501927741691915 8.2085263838345615 2 88.554773253015057 4.9203177289892279 2 3.4036317127633584 18.037384551274911 2 49.815959709877419 13.017367322007113 2 52.928391050021709 10.120755736559001 2 53.857291467139767 7.923873907999667 2 87.070156436601962 9.3520603851118427 2 89.553222275528356 14.450108364238663 2 92.424310375603994 12.630188365918203 2 95.024199950593299 18.657828771317583 2 98.6 6.1471008212170277 2 4.8505832543460317 15.981798978393583 2 22.571080290918928 16.406715064135707 2 52.782034001988372 15.635559004834995 2 53.146620308220385 5.4953534835118569 2 53.01153426412597 11.837569743419188 2 85.348482554801052 13.089562412076726 2 89.399129222334452 2.9011562807184461 2 88.527747132489395 5.9720286821479158 2 98.6 12.052266406095118 2 37.482472072122647 12.830341583427847 2 43.603400399599558 16.156904841741515 2 51.974022091221386 7.0369911099513116 2 55.834675260166613 13.469548644962448 2 56.847102563591207 8.8241474172061398 2 58.08898799491714 6.8203351745114986 2 89.326299339805288 10.696147230545842 2 89.523975044925962 12.559500418776306 2 92.479269900542576 18.427374434186202 2 92.995057493362665 10.216160699264957 2 24.165420149542197 16.537576391096742 2 50.914699257407911 14.471714408541414 2 52.417398393610341 1.4 2 56.106600273634484 18.522259573041921 2 83.322424420747652 9.3653729355645208 2 98.6 13.24615583328473 2 15.64232385905262 17.397956364237725 2 36.636402212472682 10.902867216949577 2 51.664111388182107 9.4318268660618099 2 55.040316190746161 9.8470139284741212 2 87.567111876208614 6.4121990622715614 2 87.469745694333696 13.822142889714639 2 91.173817023816397 7.7849698119553752 2 97.661297121829307 18.741920250466194 2 98.6 4.1903065129163215 2 8.1686454529723775 19.306103147224906 2 20.701869562910662 16.497376987343362 2 45.434400675579347 15.509445618269462 2 48.028320268079192 18.623411162666766 2 54.00871406879218 6.7148188991810303 2 53.514274233444368 14.109044134036376 2 85.001272539567879 10.911989493270402 2 88.781806960113087 1.4 2 88.439835646269017 2.3007200783352237 2 88.035264205997109 8.5715345913448395 2 96.34281010554632 16.606589570608822 2 6.7653419528468417 15.573476271828504 2 </DataArray>
<DataArray Name="forces" NumberOfComponents="3" format="ascii" type="Float32">-0.027844915570475415 0.27545959421660937 0.0 0.018754391804364882 -1.4962408570702377 0.0 -0.16425864786845712 0.39877279195536386 0.0 0.18206824703377317 0.24538177247700343 0.0 0.078734032016884115 -0.02722210675501522 0.0 -0.040173499993873873 0.46828028661408788 0.0 -0.017985300662444859 0.18981549672225917 0.0 0.14061571982044821 0.32822909756180779 0.0 -0.069494835204359506 0.18174402271869033 0.0 -0.0087464577010291367 0.5353022317091547 0.0 -0.13415617298330518 0.56159446405302516 0.0 2.2246283626690619 0.27587233994066229 0.0 -0.061607201346598139 0.41378365092185765 0.0 -0.21400926584701163 0.34508534589941198 0.0 0.0083608398971205533 0.48048163475643868 0.0 -0.11075005664799731 0.0031307195038619007 0.0 -0.049184517657042348 0.20308760314296503 0.0 -0.35818724623693665 0.71513748008467026 0.0 -0.01030894191194498 0.21548259282530557 0.0 0.036472560620125785 -0.030922046626956856 0.0 -0.16790033316802722 -1.5016480801308463 0.0 2.461774920310432 0.30705476998657216 0.0 -0.061306043190273038 0.55397999621067806 0.0 -0.064555290729481241 0.53826576337656551 0.0 0.0036662782931553284 -1.857719565160616 0.0 -0.0019296391521001488 0.26538208719589529 0.0 -0.17999429183678348 0.29679634442734981 0.0 -0.093712343844966906 0.38012892524183417 0.0 -0.12793829899599068 0.1518345965051732 0.0 -0.090504116334629028 0.10439425685026127 0.0 0.046059553003005398 0.17238685766028805 0.0 -0.090431500013696764 0.77649508793795208 0.0 -0.15412563936521304 -0.060490410515658732 0.0 -0.045472848365067764 0.67171967204798655 0.0 2.8964727178952487 0.22033026997535732 0.0 -0.12088759718610237 0.7908006300613668 0.0 0.052365964137407517 0.66499173745108742 0.0 -0.08693745180391832 0.21394411532987601 0.0 -0.028585889894272326 0.65137497750690798 0.0 -0.29207627698703964 0.23811672413654517 0.0 -0.10182831783068103 0.42422401923907527 0.0 -0.082688722367446954 0.15535414355056515 0.0 0.056304383708510652 0.26506477867718603 0.0 0.015425918635486424 0.044578391423712005 0.0 0.04581049099789275 0.065955068304908451 0.0 0.0037401775016128319 0.075699768105244189 0.0 1.1132499946824921 0.50412232735170648 0.0 -0.030593091355380464 0.19304666522823646 0.0 -0.27714446312928109 0.70807258106840687 0.0 0.07756325116773953 0.15946100673871413 0.0 -0.090953878499579477 0.19938161053786124 0.0 0.018616818584446582 0.052268219615992567 0.0 -0.10007516331118833 0.18111578921381324 0.0 0.024078262253544314 0.51029745851546171 0.0 0.0042852996896668993 0.73433913295457565 0.0 -0.11047724340431353 0.35155560425646143 0.0 2.2216428771302326 0.2190796721255962 0.0 0.1238501892827801 0.60379610871143252 0.0 -0.037904376550560927 0.37622696416634416 0.0 -0.031599004897744254 0.085702453576242621 0.0 -0.010292643391010881 0.23008988118604776 0.0 -0.16468514530929956 0.51932006721791746 0.0 -0.014711001170495647 -2.0458916506751659 0.0 -0.13600505900202442 -2.053783365248572 0.0 0.030511936483346158 0.58595221541360132 0.0 0.088672210832603182 0.32909216593670887 0.0 0.0047755136065985304 0.23542840306718005 0.0 -0.11478935468832208 0.67786189837802657 0.0 0.0046142173115457825 -2.0317469920281548 0.0 -0.015376654718713745 0.26475036509196986 0.0 0.0089709191165890934 0.84469963151526672 0.0 -0.16951914367779564 0.44226595606756569 0.0 -0.14668641619605272 0.2250493343291495 0.0 -0.040258014824107388 0.22035078422889534 0.0 0.040888486315257211 0.10803289313608466 0.0 0.10099540194659815 0.43328442106711429 0.0 0.89280637040950195 0.60143426795075916 0.0 2.6707485396181574 0.25229096088916347 0.0 -0.02007247697832798 0.62371122041491334 0.0 -0.070960568439407096 0.7524701446810157 0.0 -0.030473562453618708 0.33378830987534008 0.0 0.09895664181946337 0.85755069845419452 0.0 -0.048343687863631413 0.57128828802480092 0.0 0.10110803029794502 0.18984041090781342 0.0 0.13177843996540187 -2.1340401151939514 0.0 0.051623417696953028 0.35110183950446672 0.0 0.032777967200734559 0.38453326153284384 0.0 0.067449933737412524 0.4704946293861742 0.0 -0.024629598576696721 0.47931033228435377 0.0 -0.13624420029636511 0.18557762416606124 0.0 0.079870894490636044 0.26892177200822437 0.0 0.077584195114221322 0.12910662394971051 0.0 0.15313217898764675 0.32403001361619249 0.0 0.1334705944301996 0.5323024403711879 0.0 3.7543096003161116 -2.2086043130277893 0.0 -0.018495654622853408 0.46511774572574827 0.0 0.081263128356735409 0.69917311798957194 0.0 -0.11038126357616668 0.00397906042669538 0.0 0.056662468576894026 0.72527807039712811 0.0 0.064371420457501924 0.079431551992463545 0.0 0.0046191477307663265 0.026224402940955488 0.0 -0.005002513864457131 0.75365405084830028 0.0 -0.027561493769540008 0.54113369434259295 0.0 0.012778204817549321 0.44906109597289318 0.0 -0.044218066222375285 0.23898368438931894 0.0 -0.020784598236434304 0.23199171312302902 0.0 0.17805439401504997 0.55434910887796018 0.0 0.11459250245119701 0.44614077805038443 0.0 0.074857531730493754 0.71769133099198656 0.0 2.6377775355343305 0.27052299440663996 0.0 -0.022293571574795168 0.555301015587638 0.0 -0.12418179047420419 0.47833416798084211 0.0 0.011241724628645255 0.60283223984901269 0.0 0.051070171503209014 0.10484486928656297 0.0 -0.051056949245200586 0.39999031845542865 0.0 0.027445955394186705 0.27774918180737118 0.0 0.066095245659736512 0.11251850061288357 0.0 -0.035001740689046545 -0.13152213492010748 0.0 1.2402900768564842 0.31186604632016968 0.0 0.12049533172251103 0.37893239022111785 0.0 0.046305203665715541 0.67084707876405036 0.0 0.041656550893152233 0.067995940543595645 0.0 -0.079676834528910667 0.44896985107006226 0.0 -0.099169270006813998 0.16444328584856907 0.0 -0.013348448640957522 0.15379263237456342 0.0 0.051440573407807777 0.24304156299075058 0.0 0.053955465167885852 0.4575965457708821 0.0 -0.013859703985455385 0.884834098272124 0.0 0.023888147539871202 0.43261955776751232 0.0 -0.13643030092870012 0.66807559889586621 0.0 -0.049337897604371322 0.54138200475635601 0.0 -0.032251062827869853 -1.9556753829821847 0.0 -0.14216167128849408 0.75779587271878945 0.0 0.078519411985901663 0.13727891863341835 0.0 0.85806385814797903 0.37835935691466394 0.0 -0.14159458832693805 0.50142634816319376 0.0 0.06453514888227041 0.38335418504986607 0.0 -0.11624125925511197 0.38953254662386966 0.0 -0.089062501813300221 0.27383223404721807 0.0 0.10852096011828324 0.14788852263268346 0.0 0.043213170719029387 0.41194567954247374 0.0 -0.024508301131668728 0.1524752756933955 0.0 0.099876341203655905 0.73516491348165658 0.0 2.652021873965178 0.29083026924715427 0.0 -0.097276045180610227 0.6881025607599186 0.0 -0.11469237686395893 0.68124548870064183 0.0 -0.01584699768467171 0.53661593897485527 0.0 -0.064448693198425555 0.70471929793473476 0.0 -0.23662357146591395 0.053817457094730958 0.0 -0.10901495853550161 0.54496764844934142 0.0 0.064074724268496808 0.27119184742306524 0.0 0.13087991228213591 -1.9657085638962672 0.0 0.1119330789339438 0.10636791573225292 0.0 -0.047920520727509408 0.1904201951198457 0.0 0.0057922400626139181 0.56582351378864471 0.0 -0.028058045610786175 0.62653874379913721 0.0 </DataArray>
<DataArray Name="radii" format="ascii" type="Float32">1.2 1.4 1.4 1.4 1 1.4 1.2 1.4 1.4 1.4 1.4 1.2 1.2 1.4 1.4 1.2 1.4 1.4 1.2 1 1 1.4 1.4 1.4 1 1.4 1.4 1.4 1.4 1 1.4 1.4 1.4 1.4 1.4 1.4 1.4 1.4 1.4 1.2 1.4 1.4 1 1 1.2 1 1.4 1.2 1.4 1.2 1.2 1.2 1.4 1.4 1.4 1.4 1.2 1.2 1.2 1.2 1.2 1.4 1.4 1.2 1.4 1.4 1.4 1.4 1.4 1 1.4 1.4 1.4 1.4 1.4 1.4 1.4 1.4 1.4 1.4 1.4 1.4 1.4 1.2 1.2 1.4 1.2 1.4 1.4 1.4 1.4 1.2 1.4 1.4 1.2 1.2 1.4 1.2 1.4 1 1.2 1.4 1.2 1.4 1.4 1.4 1.4 1.4 1.4 1.4 1.4 1.4 1.4 1.4 1.4 1.2 1.2 1.2 1.4 1.2 1.4 1.4 1.2 1.2 1.2 1.4 1.4 1.4 1.4 1.4 1.4 1.4 1.4 1.2 1.4 1.4 1.2 1.4 1.4 1.4 1.4 1.2 1.4 1.4 1.4 1.4 1.4 1.4 1.4 1.4 1.4 1.4 1.2 1.4 1.4 1.2 </DataArray>
</PointData>
<CellData/>
</Piece>
</UnstructuredGrid>
</VTKFile>
