<?xml version="1.0" ?>
<VTKFile byte_order="LittleEndian" type="UnstructuredGrid" version="0.1">
<UnstructuredGrid>
<Piece NumberOfCells="0" NumberOfPoints="38">
<Points>
<DataArray NumberOfComponents="3" format="ascii" type="Float32">3.322749674305407 2.8302810222422217 2 8.1112773532180817 1.0844680456700899 2 17.714675233970294 2.9747679183058526 2 21.234438419352951 1 2 24.897550259839903 1.3694387967197408 2 35.766857139483548 2.8960944913087152 2 40.179447024156069 3.4023759171873733 2 45.712036527656103 1 2 49.694233630140083 1.248464994395031 2 52.139264721748702 2.9417254126417469 2 54.154771034876539 2.9948509468883642 2 56.1755183131907 1.7045540590607402 2 59.545080775930202 2.7130311982338551 2 82.248343786727716 1 2 86.481590118252583 2.9631908848421564 2 88.583423394912941 2.9317733084831188 2 90.695840382172989 2.8791178270336002 2 94.76592352360359 3.8324532203087802 2 98.850834151691942 1 2 4.128708326785973 1 2 7.2315888394875145 3.4165721757423899 2 17.281939743901393 1 2 21.841651515662882 3.5861814658016429 2 23.012800801735647 1.9643866082938861 2 35.094934354120234 1 2 39.724809853350408 1 2 46.458742511626141 2.8614884240757341 2 50.295039051774893 3.6238803280049861 2 51.682493370857642 1 2 54.305375551348668 1 2 55.842227620016565 3.9837699675002471 2 60.661346456686559 1 2 82.534289009952602 2.9707701415616596 2 86.15998267198529 1 2 88.020227876598909 1 2 90.077105252234404 1 2 94.693942975005783 1 2 99.0 2.9947869431073899 2 </DataArray>
</Points>
<Cells>
<DataArray Name="connectivity" format="ascii" type="Int32">0</DataArray>
<DataArray Name="offsets" format="ascii" type="Int32">0</DataArray>
<DataArray Name="types" format="ascii" type="UInt8">1</DataArray>
</Cells>
<PointData>
<DataArray Name="Points" NumberOfComponents="3" format="ascii" type="Float32">3.322749674305407 2.8302810222422217 2 8.1112773532180817 1.0844680456700899 2 17.714675233970294 2.9747679183058526 2 21.234438419352951 1 2 24.897550259839903 1.3694387967197408 2 35.766857139483548 2.8960944913087152 2 40.179447024156069 3.4023759171873733 2 45.712036527656103 1 2 49.694233630140083 1.248464994395031 2 52.139264721748702 2.9417254126417469 2 54.154771034876539 2.9948509468883642 2 56.1755183131907 1.7045540590607402 2 59.545080775930202 2.7130311982338551 2 82.248343786727716 1 2 86.481590118252583 2.9631908848421564 2 88.583423394912941 2.9317733084831188 2 90.695840382172989 2.8791178270336002 2 94.76592352360359 3.8324532203087802 2 98.850834151691942 1 2 4.128708326785973 1 2 7.2315888394875145 3.4165721757423899 2 17.281939743901393 1 2 21.841651515662882 3.5861814658016429 2 23.012800801735647 1.9643866082938861 2 35.094934354120234 1 2 39.724809853350408 1 2 46.458742511626141 2.8614884240757341 2 50.295039051774893 3.6238803280049861 2 51.682493370857642 1 2 54.305375551348668 1 2 55.842227620016565 3.9837699675002471 2 60.661346456686559 1 2 82.534289009952602 2.9707701415616596 2 86.15998267198529 1 2 88.020227876598909 1 2 90.077105252234404 1 2 94.693942975005783 1 2 99.0 2.9947869431073899 2 </DataArray>
<DataArray Name="forces" NumberOfComponents="3" format="ascii" type="Float32">-0.0030042481359973876 0.0025345097586152599 0.0 -0.0071491332478715057 0.0006388014110224004 0.0 0.0 0.0 0.0 -0.0072377595647463225 -0.014024400181940148 0.0 0.0040343798763084072 -0.0081711001199642093 0.0 0.0 0.0 0.0 0.0069733165156200989 0.0045021726229703815 0.0 -0.0039885181155433483 -0.0023915698718610465 0.0 -0.0029191606020731739 0.00036687221326854174 0.0 -0.010874951465553423 0.005682994670395093 0.0 0.0087963236778620078 0.010006515490270793 0.0 6.6719554446559976e-05 0.00069840413027463626 0.0 -0.019632182998276484 0.052730765048133135 0.0 0.036174074546434482 -0.00020731605548386488 0.0 0.00028202247598760333 -4.7317288603424756e-05 0.0 0.00073028635492782836 0.002699659475617372 0.0 1.5895147022320478e-05 4.3861339021838711e-05 0.0 -0.00028303727757737242 0.0061850440376318462 0.0 0.00022085080547691729 -0.0018470273517357291 0.0 -0.0036461183774585482 -0.0026362702896616072 0.0 -0.0017253541362369333 0.0014242047566289545 0.0 -0.0080018350800193407 -0.016176361687686484 0.0 3.1273965256883168e-05 0.0046267357380543848 0.0 0.017191579573352395 0.013605614698655446 0.0 -0.0052826125596894258 0.0 0.0 -0.0011116696213804289 0.0 0.0 0.0034100999479478459 0.002396135906219018 0.0 0.0039857687894015812 0.0079479099030047452 0.0 0.00066073475911039179 -0.0094836795994898693 0.0 0.00037121421825858582 -0.016169562709266349 0.0 -0.01434005384196331 0.017126955612157269 0.0 0.010883295574869667 -0.058274096547323309 0.0 -0.0011116805317592556 -0.00019689751222330294 0.0 0.038948217174215982 -0.00047046618817625751 0.0 -0.021245507377405985 -0.002699659475617372 0.0 0.033064249178032697 -4.3861339021838711e-05 0.0 0.0 0.0 0.0 0.00013866064025995359 0.0018470273517357291 0.0 </DataArray>
<DataArray Name="radii" format="ascii" type="Float32">1 1 1 1 1 1 1 1 1 1 1 1 1 1 1 1 1 1 1 1 1 1 1 1 1 1 1 1 1 1 1 1 1 1 1 1 1 1 </DataArray>
</PointData>
<CellData/>
</Piece>
</UnstructuredGrid>
</VTKFile>
