<?xml version="1.0" ?>
<VTKFile byte_order="LittleEndian" type="UnstructuredGrid" version="0.1">
<UnstructuredGrid>
<Piece NumberOfCells="0" NumberOfPoints="76">
<Points>
<DataArray NumberOfComponents="3" format="ascii" type="Float32">3.7843241028642889 6.7049077668561159 2 7.0997546748323828 1.5999999999999999 2 18.108264782246213 8.7193164388803304 2 21.059206671462579 1.5999999999999999 2 24.705618127875933 1.5999999999999999 2 36.930609610758523 8.191436760310209 2 41.150394981764627 11.179341903968936 2 45.74399831106733 3.8568455078308821 2 49.894858950839698 1.5999999999999999 2 51.230016217931997 6.0280624182707445 2 55.638153593524493 8.388038878719918 2 57.543662212544064 6.3146252420494671 2 59.791261978614649 6.7168949690394681 2 82.300606749670564 3.8036133432833292 2 87.702132980599444 6.8383922864993743 2 89.843238731275051 6.8982713670000075 2 91.15041442201597 9.7344892711628752 2 93.638731793760996 9.694717373085167 2 98.4 1.5999999999999999 2 3.4619133455611846 1.5999999999999999 2 8.0119296430642155 8.4487490172387822 2 18.471916923393131 3.8095802743596741 2 23.528390265371414 9.6913813353590719 2 23.141386549636408 7.1762430133751254 2 35.977692285316721 1.5999999999999999 2 39.728765955079851 1.5999999999999999 2 46.472060883757194 6.3453572807205667 2 48.851008271690098 10.497983667358699 2 51.942152160168206 1.5999999999999999 2 53.824362418966309 1.5999999999999999 2 56.085518034595268 11.339913952092141 2 59.38496113220711 1.5999999999999999 2 82.006900998014487 6.3787575949270332 2 85.759620161805913 3.9432608848968558 2 87.593955952425915 4.3588028173586348 2 90.554955050533209 1.5999999999999999 2 94.828786568213545 4.2268561656217543 2 98.4 7.2837431659218526 2 3.6869703032634273 9.6118904447447502 2 7.3559899326374012 3.7436946306174526 2 18.42654816726203 11.462595666463994 2 22.411832022373002 4.0035645412013068 2 22.945935267196987 1.5999999999999999 2 35.765467388779584 5.9299911616827359 2 38.300453933663967 10.713015396687126 2 46.1817823027922 1.5999999999999999 2 51.500125282875025 3.6984507811469838 2 51.028439197553709 8.7842582502698967 2 53.240168318147802 7.0722081594580821 2 55.260365325464385 5.8317587766252812 2 57.909495264632056 4.1241368441832433 2 83.128848818181552 1.5999999999999999 2 85.505857985956879 6.648277621822662 2 88.720764334109333 9.6683120443494435 2 92.079901509316542 7.0408832671206705 2 95.735354768250076 11.792755659575434 2 98.4 4.4502030702659061 2 3.4182276802756957 4.1337778273599053 2 7.3255563139193809 11.439888941870107 2 17.267390015006704 1.5999999999999999 2 21.528582077339806 11.903874257937115 2 21.316122071522916 6.4324679965722611 2 34.98892496545956 3.5243477787710611 2 39.092629198871762 4.2081075491104771 2 46.798785761867606 8.8734450538721212 2 51.464713234186647 11.860696339624877 2 53.510777455324408 4.1518978965820015 2 55.737134121542688 1.5999999999999999 2 53.532402273639732 9.9499725703121928 2 59.868045450580865 3.9680859386987319 2 83.562124193346591 7.8542252684385954 2 86.694639135321026 1.5999999999999999 2 88.560766769136308 1.5999999999999999 2 89.419648489248331 4.080333723349411 2 94.448396280109975 1.5999999999999999 2 98.4 10.277769021425504 2 </DataArray>
</Points>
<Cells>
<DataArray Name="connectivity" format="ascii" type="Int32">0</DataArray>
<DataArray Name="offsets" format="ascii" type="Int32">0</DataArray>
<DataArray Name="types" format="ascii" type="UInt8">1</DataArray>
</Cells>
<PointData>
<DataArray Name="Points" NumberOfComponents="3" format="ascii" type="Float32">3.7843241028642889 6.7049077668561159 2 7.0997546748323828 1.5999999999999999 2 18.108264782246213 8.7193164388803304 2 21.059206671462579 1.5999999999999999 2 24.705618127875933 1.5999999999999999 2 36.930609610758523 8.191436760310209 2 41.150394981764627 11.179341903968936 2 45.74399831106733 3.8568455078308821 2 49.894858950839698 1.5999999999999999 2 51.230016217931997 6.0280624182707445 2 55.638153593524493 8.388038878719918 2 57.543662212544064 6.3146252420494671 2 59.791261978614649 6.7168949690394681 2 82.300606749670564 3.8036133432833292 2 87.702132980599444 6.8383922864993743 2 89.843238731275051 6.8982713670000075 2 91.15041442201597 9.7344892711628752 2 93.638731793760996 9.694717373085167 2 98.4 1.5999999999999999 2 3.4619133455611846 1.5999999999999999 2 8.0119296430642155 8.4487490172387822 2 18.471916923393131 3.8095802743596741 2 23.528390265371414 9.6913813353590719 2 23.141386549636408 7.1762430133751254 2 35.977692285316721 1.5999999999999999 2 39.728765955079851 1.5999999999999999 2 46.472060883757194 6.3453572807205667 2 48.851008271690098 10.497983667358699 2 51.942152160168206 1.5999999999999999 2 53.824362418966309 1.5999999999999999 2 56.085518034595268 11.339913952092141 2 59.38496113220711 1.5999999999999999 2 82.006900998014487 6.3787575949270332 2 85.759620161805913 3.9432608848968558 2 87.593955952425915 4.3588028173586348 2 90.554955050533209 1.5999999999999999 2 94.828786568213545 4.2268561656217543 2 98.4 7.2837431659218526 2 3.6869703032634273 9.6118904447447502 2 7.3559899326374012 3.7436946306174526 2 18.42654816726203 11.462595666463994 2 22.411832022373002 4.0035645412013068 2 22.945935267196987 1.5999999999999999 2 35.765467388779584 5.9299911616827359 2 38.300453933663967 10.713015396687126 2 46.1817823027922 1.5999999999999999 2 51.500125282875025 3.6984507811469838 2 51.028439197553709 8.7842582502698967 2 53.240168318147802 7.0722081594580821 2 55.260365325464385 5.8317587766252812 2 57.909495264632056 4.1241368441832433 2 83.128848818181552 1.5999999999999999 2 85.505857985956879 6.648277621822662 2 88.720764334109333 9.6683120443494435 2 92.079901509316542 7.0408832671206705 2 95.735354768250076 11.792755659575434 2 98.4 4.4502030702659061 2 3.4182276802756957 4.1337778273599053 2 7.3255563139193809 11.439888941870107 2 17.267390015006704 1.5999999999999999 2 21.528582077339806 11.903874257937115 2 21.316122071522916 6.4324679965722611 2 34.98892496545956 3.5243477787710611 2 39.092629198871762 4.2081075491104771 2 46.798785761867606 8.8734450538721212 2 51.464713234186647 11.860696339624877 2 53.510777455324408 4.1518978965820015 2 55.737134121542688 1.5999999999999999 2 53.532402273639732 9.9499725703121928 2 59.868045450580865 3.9680859386987319 2 83.562124193346591 7.8542252684385954 2 86.694639135321026 1.5999999999999999 2 88.560766769136308 1.5999999999999999 2 89.419648489248331 4.080333723349411 2 94.448396280109975 1.5999999999999999 2 98.4 10.277769021425504 2 </DataArray>
<DataArray Name="forces" NumberOfComponents="3" format="ascii" type="Float32">0.052968295033870516 0.395148900004482 0.0 -0.10614646621444568 -1.2992129462593118 0.0 -0.081153496618789955 0.42346123996893598 0.0 -0.020388383089337492 -1.0245063145747966 0.0 -0.03438554289324855 -1.3249584117608511 0.0 0.042498510145847157 0.43997041698873918 0.0 0.16218998557399356 0.45525678128647662 0.0 0.065970589109095645 0.17427752396873186 0.0 -0.048012753799467678 -0.94363842746737614 0.0 -0.024215811773721729 0.32343061365357439 0.0 -0.01322205547235894 0.38482178573208092 0.0 0.010886113516577374 0.33111805837074981 0.0 -0.016063634316424436 0.33836263628667623 0.0 0.14326659878835191 0.11265756511501016 0.0 0.034986105595440936 0.36311867049358343 0.0 0.01661033124212237 0.36653364289353491 0.0 -0.022614713576782713 0.43870534668436617 0.0 0.015388639945846716 0.43178139440468921 0.0 1.5664983697165291 -0.87126510532865731 0.0 -0.059113427583298718 -0.81880424064094681 0.0 0.091244618763013041 0.33458519457043379 0.0 0.062692194910610177 0.20645419262272979 0.0 -0.0054925962423781893 0.48656586559404769 0.0 0.052943455607617429 0.4124684547141505 0.0 -0.00098427053235128348 -1.0694497995397261 0.0 -0.048532519530812945 -1.0062962976585712 0.0 0.042685506958800939 0.21494298726169117 0.0 -0.10593019582003141 0.51345774066511174 0.0 -0.057254549510163621 -1.2175866754523994 0.0 -0.038998878865104725 -0.88722977665033187 0.0 0.040723520232928967 0.45170591185067288 0.0 -0.027887165491633503 -1.0171059867275001 0.0 0.098169372333623717 0.23107587891426873 0.0 -0.028477296996279294 0.012529517767142284 0.0 -0.011300554266245877 0.24832271094267439 0.0 0.0036834963316820235 -0.69307308069373841 0.0 -0.088269904163836649 0.24054056701644852 0.0 1.1966104202904821 0.37207419060873792 0.0 0.077056409080189958 0.56428871482003518 0.0 -0.00015674432722175002 0.12608007211324646 0.0 0.041441701859625132 0.44005635310407143 0.0 0.006053696172273082 0.12777517449213371 0.0 -0.029424878071829943 -0.85169335408009716 0.0 0.037562037757730593 0.30301779808367124 0.0 0.044096048090550899 0.58058059015537022 0.0 -0.035427513299053581 -1.0550299804817507 0.0 0.046216959254722134 0.16510095038271178 0.0 -0.054490955853647716 0.44273692763345729 0.0 -0.022170126550649014 0.35505547737955373 0.0 0.027274998110158266 0.31305106524544635 0.0 -0.045308057841577432 0.22209815806438099 0.0 0.12454743381969124 -0.81089320303183998 0.0 -0.028987223282318175 0.15542055494480556 0.0 -0.075711493831546517 0.44082791609546651 0.0 0.0088948576541582614 0.40759462159854387 0.0 0.013486590257825143 0.47651676493957201 0.0 1.6529685355198329 0.23368629593515622 0.0 0.0036875401106311045 0.23408390732555562 0.0 0.10590313815556142 0.40147431789545973 0.0 0.011137920267159263 -1.4196507199060127 0.0 0.0092981861394334925 0.48529703226306953 0.0 0.043895803782947967 0.18067849126873625 0.0 0.07054714407917384 0.16457634977094021 0.0 0.065394252834416605 0.24756936223115666 0.0 -0.095705064591240785 0.39018929470110908 0.0 -0.045967524479095134 0.47493999613912768 0.0 -0.021836787111501721 0.24535560123340291 0.0 -0.022004035064044677 -1.0894768377193451 0.0 -0.010935549022872026 0.43705877241912555 0.0 -0.060890376255013562 0.17783339322423897 0.0 -0.016405556566319271 0.66958137920799898 0.0 0.088314588438513475 -0.91878255935547615 0.0 0.030811410550076163 -0.81815629475812579 0.0 0.002430227103260546 0.17281931816782176 0.0 0.00025143034352992366 -1.1060663988456747 0.0 0.58827436631254071 0.44022676332502564 0.0 </DataArray>
<DataArray Name="radii" format="ascii" type="Float32">1.5999999999999999 1.5999999999999999 1.5999999999999999 1.5999999999999999 1.5999999999999999 1.5999999999999999 1.5999999999999999 1.5999999999999999 1.5999999999999999 1.5999999999999999 1.5999999999999999 1.5999999999999999 1.5999999999999999 1.5999999999999999 1.5999999999999999 1.5999999999999999 1.5999999999999999 1.5999999999999999 1.5999999999999999 1.5999999999999999 1.5999999999999999 1.5999999999999999 1.5999999999999999 1.5999999999999999 1.5999999999999999 1.5999999999999999 1.5999999999999999 1.5999999999999999 1.5999999999999999 1.5999999999999999 1.5999999999999999 1.5999999999999999 1.5999999999999999 1.5999999999999999 1.5999999999999999 1.5999999999999999 1.5999999999999999 1.5999999999999999 1.5999999999999999 1.5999999999999999 1.5999999999999999 1.5999999999999999 1.5999999999999999 1.5999999999999999 1.5999999999999999 1.5999999999999999 1.5999999999999999 1.5999999999999999 1.5999999999999999 1.5999999999999999 1.5999999999999999 1.5999999999999999 1.5999999999999999 1.5999999999999999 1.5999999999999999 1.5999999999999999 1.5999999999999999 1.5999999999999999 1.5999999999999999 1.5999999999999999 1.5999999999999999 1.5999999999999999 1.5999999999999999 1.5999999999999999 1.5999999999999999 1.5999999999999999 1.5999999999999999 1.5999999999999999 1.5999999999999999 1.5999999999999999 1.5999999999999999 1.5999999999999999 1.5999999999999999 1.5999999999999999 1.5999999999999999 1.5999999999999999 </DataArray>
</PointData>
<CellData/>
</Piece>
</UnstructuredGrid>
</VTKFile>
