<?xml version="1.0" ?>
<VTKFile byte_order="LittleEndian" type="UnstructuredGrid" version="0.1">
<UnstructuredGrid>
<Piece NumberOfCells="0" NumberOfPoints="19">
<Points>
<DataArray NumberOfComponents="3" format="ascii" type="Float32">3.5895496430958831 1.5999999999999999 2 7.6035368657309004 1.5999999999999999 2 17.806894608989808 1.5999999999999999 2 21.896389898468311 1.5999999999999999 2 23.975163916628084 1.5999999999999999 2 35.933471301082669 1.5999999999999999 2 39.992463200230667 1.5999999999999999 2 45.998945088882031 1.5999999999999999 2 50.000096025666672 1.5999999999999999 2 52.000948877621681 1.5999999999999999 2 54.002987653281636 1.5999999999999999 2 56.008774898293247 1.5999999999999999 2 60.067111778082698 1.5999999999999999 2 82.202205344897095 1.5999999999999999 2 86.284822893951912 1.5999999999999999 2 88.328118367145748 1.5999999999999999 2 90.367384028066937 1.5999999999999999 2 94.41111775755617 1.5999999999999999 2 98.4 1.5999999999999999 2 </DataArray>
</Points>
<Cells>
<DataArray Name="connectivity" format="ascii" type="Int32">0</DataArray>
<DataArray Name="offsets" format="ascii" type="Int32">0</DataArray>
<DataArray Name="types" format="ascii" type="UInt8">1</DataArray>
</Cells>
<PointData>
<DataArray Name="Points" NumberOfComponents="3" format="ascii" type="Float32">3.5895496430958831 1.5999999999999999 2 7.6035368657309004 1.5999999999999999 2 17.806894608989808 1.5999999999999999 2 21.896389898468311 1.5999999999999999 2 23.975163916628084 1.5999999999999999 2 35.933471301082669 1.5999999999999999 2 39.992463200230667 1.5999999999999999 2 45.998945088882031 1.5999999999999999 2 50.000096025666672 1.5999999999999999 2 52.000948877621681 1.5999999999999999 2 54.002987653281636 1.5999999999999999 2 56.008774898293247 1.5999999999999999 2 60.067111778082698 1.5999999999999999 2 82.202205344897095 1.5999999999999999 2 86.284822893951912 1.5999999999999999 2 88.328118367145748 1.5999999999999999 2 90.367384028066937 1.5999999999999999 2 94.41111775755617 1.5999999999999999 2 98.4 1.5999999999999999 2 </DataArray>
<DataArray Name="forces" NumberOfComponents="3" format="ascii" type="Float32">0.01020391249774133 0.0 0.0 0.015248228053790669 0.0 0.0 -0.0022719229060381707 0.0 0.0 0.02849046319805737 0.0 0.0 0.077909630587921441 0.0 0.0 -0.083292482479450314 0.0 0.0 -0.0084892681699031414 0.0 0.0 -0.00021126618114664097 0.0 0.0 0.00024895403332436672 0.0 0.0 0.0010575243337669349 0.0 0.0 0.0034213956814497237 0.0 0.0 0.0097471090313518971 0.0 0.0 0.054446073649309312 0.0 0.0 -0.003934379519236586 0.0 0.0 0.001216304937059931 0.0 0.0 -0.0039424142922825922 0.0 0.0 -0.010159784893176038 0.0 0.0 -0.01568353515722265 0.0 0.0 1.2112995826697781 0.0 0.0 </DataArray>
<DataArray Name="radii" format="ascii" type="Float32">1.5999999999999999 1.5999999999999999 1.5999999999999999 1.5999999999999999 1.5999999999999999 1.5999999999999999 1.5999999999999999 1.5999999999999999 1.5999999999999999 1.5999999999999999 1.5999999999999999 1.5999999999999999 1.5999999999999999 1.5999999999999999 1.5999999999999999 1.5999999999999999 1.5999999999999999 1.5999999999999999 1.5999999999999999 </DataArray>
</PointData>
<CellData/>
</Piece>
</UnstructuredGrid>
</VTKFile>
