<?xml version="1.0" ?>
<VTKFile byte_order="LittleEndian" type="UnstructuredGrid" version="0.1">
<UnstructuredGrid>
<Piece NumberOfCells="0" NumberOfPoints="30">
<Points>
<DataArray NumberOfComponents="3" format="ascii" type="Float32">1.5999999999999999 1.5999999999999999 2 5.5889185403983381 1.5999999999999999 2 9.6330668768174945 1.5999999999999999 2 11.673176084902089 1.5999999999999999 2 13.718336496946348 1.5999999999999999 2 15.763834327586547 1.5999999999999999 2 19.848284206828964 1.5999999999999999 2 26.134911032117653 1.5999999999999999 2 28.077377634993326 2.6520968820453805 2 30.291119204661786 3.7187565173302306 2 31.439332225232999 1.5999999999999999 2 33.798768878285117 1.5999999999999999 2 37.978692467626061 1.5999999999999999 2 41.996601433984701 1.5999999999999999 2 43.99812570901225 1.5999999999999999 2 47.999535136482052 1.5999999999999999 2 58.025015075584506 1.5999999999999999 2 62.165124639170081 1.5999999999999999 2 64.365263777789224 1.5999999999999999 2 66.630094031059031 1.5277142921882778 2 68.007670777636719 4.0233709618808779 2 69.566250505306314 1.5332282153141716 2 72.117553012213563 1.52 2 74.003620358567659 3.3696816274951336 2 75.920863616446994 1.7988784978115313 2 78.079450414717058 1.5999999999999999 2 80.156555337800228 1.5999999999999999 2 84.242450053426055 1.5999999999999999 2 92.396599587071336 1.5999999999999999 2 96.410458614949931 1.5999999999999999 2 </DataArray>
</Points>
<Cells>
<DataArray Name="connectivity" format="ascii" type="Int32">0</DataArray>
<DataArray Name="offsets" format="ascii" type="Int32">0</DataArray>
<DataArray Name="types" format="ascii" type="UInt8">1</DataArray>
</Cells>
<PointData>
<DataArray Name="Points" NumberOfComponents="3" format="ascii" type="Float32">1.5999999999999999 1.5999999999999999 2 5.5889185403983381 1.5999999999999999 2 9.6330668768174945 1.5999999999999999 2 11.673176084902089 1.5999999999999999 2 13.718336496946348 1.5999999999999999 2 15.763834327586547 1.5999999999999999 2 19.848284206828964 1.5999999999999999 2 26.134911032117653 1.5999999999999999 2 28.077377634993326 2.6520968820453805 2 30.291119204661786 3.7187565173302306 2 31.439332225232999 1.5999999999999999 2 33.798768878285117 1.5999999999999999 2 37.978692467626061 1.5999999999999999 2 41.996601433984701 1.5999999999999999 2 43.99812570901225 1.5999999999999999 2 47.999535136482052 1.5999999999999999 2 58.025015075584506 1.5999999999999999 2 62.165124639170081 1.5999999999999999 2 64.365263777789224 1.5999999999999999 2 66.630094031059031 1.5277142921882778 2 68.007670777636719 4.0233709618808779 2 69.566250505306314 1.5332282153141716 2 72.117553012213563 1.52 2 74.003620358567659 3.3696816274951336 2 75.920863616446994 1.7988784978115313 2 78.079450414717058 1.5999999999999999 2 80.156555337800228 1.5999999999999999 2 84.242450053426055 1.5999999999999999 2 92.396599587071336 1.5999999999999999 2 96.410458614949931 1.5999999999999999 2 </DataArray>
<DataArray Name="forces" NumberOfComponents="3" format="ascii" type="Float32">-1.211292750697009 0.0 0.0 0.015748460719843482 0.0 0.0 0.010671459915251091 0.0 0.0 0.0049771114450791742 0.0 0.0 0.00018024529488691599 0.0 0.0 -0.0027127813155853886 0.0 0.0 0.0054517451431976838 0.0 0.0 0.16443655783736544 -0.47483755272982536 0.0 0.25064085260549812 0.19929079364527402 0.0 0.248824514194594 0.92436319563809843 0.0 -0.4852998847117666 -0.63962803704527404 0.0 -0.21295494064310461 0.0 0.0 -0.028594615221301467 0.0 0.0 -0.0022318695822960422 0.0 0.0 -0.0006027152038043937 0.0 0.0 -3.8651614509888077e-05 0.0 0.0 0.024622456442273233 0.0 0.0 0.10207682359802561 0.0 0.0 0.15030660883969649 0.028615201753232171 0.0 0.15173666489062954 0.09754505324958837 0.0 0.035199545845266494 0.26907944789127058 0.0 0.063123921232375521 0.11084732594283062 0.0 0.19388773060002912 -0.29096302475123315 0.0 7.2775765290522543e-05 0.64740540561672644 0.0 -0.25267126988773697 -0.12735153942999833 0.0 -0.088820394329468089 -0.1039215572979976 0.0 -0.028503768533312268 0.0 0.0 0.0028177731967531372 0.0 0.0 -0.015048566058808888 0.0 0.0 -0.010186638480931265 0.0 0.0 </DataArray>
<DataArray Name="radii" format="ascii" type="Float32">1.5999999999999999 1.5999999999999999 1.5999999999999999 1.5999999999999999 1.5999999999999999 1.5999999999999999 1.5999999999999999 1.5999999999999999 1.5999999999999999 1.52 1.5999999999999999 1.5999999999999999 1.5999999999999999 1.5999999999999999 1.5999999999999999 1.5999999999999999 1.5999999999999999 1.5999999999999999 1.5999999999999999 1.52 1.52 1.52 1.52 1.52 1.5999999999999999 1.5999999999999999 1.5999999999999999 1.5999999999999999 1.5999999999999999 1.5999999999999999 </DataArray>
</PointData>
<CellData/>
</Piece>
</UnstructuredGrid>
</VTKFile>
