<?xml version="1.0" ?>
<VTKFile byte_order="LittleEndian" type="UnstructuredGrid" version="0.1">
<UnstructuredGrid>
<Piece NumberOfCells="0" NumberOfPoints="1027">
<Points>
<DataArray NumberOfComponents="3" format="ascii" type="Float32">25.546505412785528 0.7 2 64.327699741734662 12.75091383458019 2 66.925818081936782 0.7 2 72.655267785816065 9.8927159077612892 2 71.867257218295137 7.6488910163962505 2 74.27283899799933 0.7 2 14.763588026757597 6.7178314667192183 2 32.049542157142461 11.061149924416169 2 72.389695697896897 8.224916551575884 2 67.15599906754511 8.0201962709824599 2 28.157389499409753 3.3714954294762811 2 71.854887982681106 4.7400282947595924 2 71.180023146340815 6.7592157447982677 2 76.943784890744666 4.8208509057856004 2 81.333540992016907 11.396925656727785 2 10.629678602170678 9.1936394748899559 2 27.235937712572738 10.415650000320259 2 30.764397721685505 9.4051370608429981 2 40.69335283159257 7.0282848141026886 2 72.070467949971686 9.0514004757823496 2 72.723858335465437 9.2849128014771232 2 77.184210524979136 6.8576244823548951 2 77.855473766256992 0.7 2 28.805210569136573 3.3559637700103262 2 60.886194267008861 4.2240308831376918 2 64.308936198372294 10.011071487896698 2 69.502187125723182 7.9866141239359285 2 75.537690765481912 12.178237847163102 2 77.824521770182031 7.0059812824610699 2 10.556183798042307 3.8375039398690722 2 13.66359131949023 11.499869062123242 2 27.774234051552625 9.895293021423166 2 30.476699320060373 6.2559114738216763 2 35.49831060736858 8.8137248366907617 2 62.916324366880303 3.7267780895727829 2 66.450612087764583 0.7 2 68.721385972544724 9.0914939139093622 2 74.964136368443803 11.668008542480937 2 10.025421728730306 9.6486569740470802 2 15.524216826431132 11.554053093936622 2 24.034571379538018 10.723348228444793 2 30.948473193547688 2.4767867212612287 2 61.083565049900393 10.214799609933984 2 67.811767613412968 2.8977577706624098 2 63.409092639238118 9.6528895297783386 2 71.636382782594865 5.280423129998284 2 74.59534140831984 1.7176823897256619 2 80.306063672230181 11.639746939629051 2 78.268186527033379 2.2589356267027161 2 13.962665478986629 0.7 2 12.468652627950936 9.3513210262425943 2 25.716131757574274 9.1139568107011346 2 30.223604034673095 6.9849613174882936 2 31.441246195967679 6.3049447063625577 2 34.701051199428193 8.5171188729414453 2 40.840604653130669 7.8137155511132637 2 44.880405656833091 6.1802541933981647 2 61.882528570307151 3.3726227910594173 2 62.727369220902666 1.6107172039555591 2 72.193278831541875 6.8933552110915617 2 74.5748054491863 10.986314213301986 2 79.501561988995704 3.5674328012407708 2 81.887841869580853 10.740686158646717 2 16.94296132858673 3.6575101859463395 2 27.387227832841539 3.5550368067125655 2 29.378671067462008 4.0388298203358293 2 41.862091831483184 5.4121625056996407 2 62.382179096737488 9.7735235173552653 2 68.81282488022994 8.1676804641431371 2 66.42626640491298 1.5293831374413707 2 77.613526080670084 7.6991811393166216 2 9.623695740208138 4.2685190826727704 2 14.592092607358413 0.7 2 17.573595340381139 3.8342499400841366 2 28.373469319413537 3.9957105602584568 2 28.857909907098776 6.7511715429631876 2 63.093332907224834 2.7814931958891602 2 66.623290869957088 2.4279561829886838 2 73.886594308628219 2.2057605753664293 2 78.434756836111518 0.7 2 7.3349372387922003 5.1606189129644173 2 14.767461410797754 5.9307850654111274 2 30.492499949458978 2.9410748170449561 2 31.539542515957159 4.8459709168138749 2 44.47531267989946 6.8253584321845384 2 62.446215936539069 9.0539335402705028 2 69.92200097828372 6.194296622525501 2 68.273420898128578 11.823920404862246 2 70.613598783531231 5.9692617059980639 2 71.248679506340409 4.1489797500515406 2 76.219775250559493 4.5228864905899764 2 80.600400765945125 10.963755509353273 2 6.8707504934059198 0.7 2 9.9994545508357149 3.7367986270310189 2 13.713976906546627 6.0504612056825513 2 15.748499741820803 12.325970957434711 2 23.507902358139912 7.0451253507535698 2 30.801496261419214 6.7712444548424671 2 41.752036319779855 4.6579063279583064 2 62.504975445559928 3.0463282567440171 2 62.549186948485307 0.7 2 76.787324617473004 5.5322064472067662 2 75.550177914411719 11.307838088099549 2 78.940531565530776 0.7 2 81.508716935652146 10.282656893917881 2 6.6447271898220936 5.8842016124660157 2 13.966643008214449 4.8051207370408324 2 27.682619609384606 4.3048324853678768 2 36.706827875403825 0.7 2 40.779501687103668 4.8053880472110677 2 63.252657736623753 7.5796418788626365 2 69.403781987023962 8.7454353890916412 2 69.269271420589263 2.4994507926913907 2 72.81184613455288 3.1239815371356174 2 74.773599887219348 0.7 2 78.065745343079797 5.1791182596799468 2 81.282862686784199 2.4385783614780876 2 8.0103211143784243 0.7 2 13.385363005960309 2.0155920220428096 2 12.763754254634096 12.044503645762433 2 15.440494928673241 6.227956410047951 2 23.215143551609557 3.0968012407529026 2 28.617156724267879 6.1954919535447877 2 64.058249574728109 3.5150037304980253 2 64.564543762258182 2.5156349444952562 2 72.639885294926415 10.636302508397941 2 71.625243215644929 7.197080856382887 2 81.75715423644634 0.7 2 10.436414451306657 4.8419380076217857 2 14.154397589573442 6.6261970382181836 2 31.269106704107443 3.2246553396823385 2 31.611187314437 3.8416334990682715 2 40.840214074537741 0.7 2 42.614472501454465 4.4631895276552509 2 62.567462813670005 8.3061515018222991 2 67.006708809475043 2.8022893491208207 2 71.055547202211002 4.8384050061809996 2 70.654509975388365 3.8039460501856941 2 75.301525655008732 3.5591361312071985 2 78.843172000411357 7.7470070788914578 2 80.037108818543444 4.2306670093004382 2 93.279712200077157 6.3484290537803165 2 13.666316534327937 7.4476470706604276 2 31.021846137716398 8.0742517949282355 2 75.788190532182654 6.9387373306670481 2 73.84897566814351 9.3719856167591651 2 75.60701447286317 4.0841918102555326 2 26.602576250929843 2.9600662834176603 2 63.074490871262441 9.1101048375318605 2 66.163931478058245 8.8554713274002328 2 77.49923334893748 5.3460952232861034 2 12.074422674106382 2.3636131186809002 2 28.350067810477316 9.7107304824146361 2 64.718417865792901 5.3017389873766749 2 64.163045904361937 4.2811498986057979 2 9.3518011933629097 9.4056180829701486 2 12.565677513201974 10.636446234467323 2 33.192339833480382 5.2443068214406248 2 60.488395741699691 4.7534260930674419 2 69.950446971759291 7.0143693756711523 2 70.964395026944345 5.4515575567704202 2 74.005090287456696 2.8546862658504186 2 79.517326621073053 8.1058670126125811 2 5.9005811373898869 8.8574832572769004 2 9.1199827037387085 0.7 2 15.465012942442124 6.9840023194907506 2 19.933579750883315 5.8822197846237287 2 26.135146483958032 6.6644329142701855 2 32.970052998467722 13.796183345691754 2 40.091318114228926 8.1928417969156033 2 61.38668612093204 11.541890148171188 2 61.206169803465436 3.4861037137317417 2 65.962297047069512 0.7 2 67.780167307234933 15.085376514869466 2 70.049767668803 12.645453946808271 2 81.193834675709155 6.895811591921194 2 6.1557561656732256 7.7039466273337753 2 17.75456773348904 4.5684516274986828 2 21.094602958555132 2.9475435279003643 2 29.956499673505789 2.811815465421772 2 34.665161422112433 0.7 2 38.78862771818838 4.6946512237609195 2 45.820306456837841 2.4795730761954649 2 48.419536131214173 4.2725262620686406 2 65.331795161260914 18.008062648025039 2 68.811261832381959 0.7 2 73.88927715542593 1.5258947201838493 2 79.168129543930448 12.636398150481931 2 76.732308315687789 0.7 2 82.942766439416886 0.7 2 7.4787524467901179 4.1676731814642176 2 16.799357437018219 7.0195356003810083 2 23.328446633555821 4.2797030559367686 2 27.533637473900061 11.553370128519505 2 32.953527004332265 10.930696083817674 2 41.753375227497031 11.733630983386885 2 50.911975376674967 6.7334757100561626 2 59.03357433629499 11.847492495405701 2 62.743659421243606 10.820062834609219 2 67.273942573163822 11.915254204393872 2 71.737730296809815 9.6245780209994081 2 74.092656912853741 7.0633120587572948 2 73.870239796107541 10.017264700405782 2 82.400128962599226 1.6706149814762215 2 3.8227085245042032 4.3569708890525458 2 9.7240571635556829 10.310752540273359 2 20.226245819370931 4.8109730021790256 2 29.792302306789267 2.2169179202047467 2 38.635073926069893 3.9737440560637158 2 40.25390845855582 0.7 2 45.946933027236454 3.2015630936529456 2 48.914858623831002 3.5638377993968353 2 59.69597324212458 0.7 2 66.523197413865091 12.817731863158484 2 69.636938451660924 0.7 2 82.23302278388266 2.416680794366342 2 93.631706421100915 3.6340682492989869 2 1.891597199377246 10.091119090171759 2 4.0782655657394828 6.5941413512542617 2 9.3286420147935019 3.3809395294612461 2 10.957312023715128 3.0251009354766838 2 15.324034310041229 10.722664825998136 2 18.145387400521535 9.69102108277594 2 27.533061767948222 6.3469959075533309 2 27.914331099234481 10.845152987582972 2 31.799589813035716 14.253330791497074 2 43.561602434805806 11.849966040643206 2 58.773998344884291 10.560788677821286 2 62.615783182491093 2.2343849536400118 2 63.943195520104112 2.9207680875496154 2 71.713322269701322 8.5961639444310478 2 71.886979735508177 10.323809076251628 2 92.900074171344627 3.6550930176710197 2 94.362795847371686 7.3596690672271317 2 0.7 3.6483816891171585 2 3.0488741208938728 0.7 2 7.5183758669634564 11.724086272099145 2 14.327154267817731 2.3576550954731266 2 34.226581863417714 17.174061772972721 2 26.130898059767748 0.7 2 35.521698759086007 1.9126591356684559 2 36.335673821922647 2.0300569254819347 2 44.840757348799848 2.9056303651464921 2 47.257540220612576 8.6421901943033923 2 66.957128047035241 1.8561387533717471 2 73.809337751714693 0.7 2 79.539511160336403 11.521974820901118 2 75.906730348901974 2.7814418802754912 2 82.092883051127643 3.0193237001522899 2 95.138513292966678 8.0890666068502846 2 95.88501194339473 2.8494374125389323 2 0.7 9.2809716559013022 2 6.5686769957771176 8.6096636187562599 2 9.9293564246514308 5.0136244341548943 2 10.575579169953457 13.755751310149964 2 16.438813980013194 6.4357647540894583 2 23.090616487460341 6
[...]
<PointData>
<DataArray Name="Points" NumberOfComponents="3" format="ascii" type="Float32">25.546505412785528 0.7 2 64.327699741734662 12.75091383458019 2 66.925818081936782 0.7 2 72.655267785816065 9.8927159077612892 2 71.867257218295137 7.6488910163962505 2 74.27283899799933 0.7 2 14.763588026757597 6.7178314667192183 2 32.049542157142461 11.061149924416169 2 72.389695697896897 8.224916551575884 2 67.15599906754511 8.0201962709824599 2 28.157389499409753 3.3714954294762811 2 71.854887982681106 4.7400282947595924 2 71.180023146340815 6.7592157447982677 2 76.943784890744666 4.8208509057856004 2 81.333540992016907 11.396925656727785 2 10.629678602170678 9.1936394748899559 2 27.235937712572738 10.415650000320259 2 30.764397721685505 9.4051370608429981 2 40.69335283159257 7.0282848141026886 2 72.070467949971686 9.0514004757823496 2 72.723858335465437 9.2849128014771232 2 77.184210524979136 6.8576244823548951 2 77.855473766256992 0.7 2 28.805210569136573 3.3559637700103262 2 60.886194267008861 4.2240308831376918 2 64.308936198372294 10.011071487896698 2 69.502187125723182 7.9866141239359285 2 75.537690765481912 12.178237847163102 2 77.824521770182031 7.0059812824610699 2 10.556183798042307 3.8375039398690722 2 13.66359131949023 11.499869062123242 2 27.774234051552625 9.895293021423166 2 30.476699320060373 6.2559114738216763 2 35.49831060736858 8.8137248366907617 2 62.916324366880303 3.7267780895727829 2 66.450612087764583 0.7 2 68.721385972544724 9.0914939139093622 2 74.964136368443803 11.668008542480937 2 10.025421728730306 9.6486569740470802 2 15.524216826431132 11.554053093936622 2 24.034571379538018 10.723348228444793 2 30.948473193547688 2.4767867212612287 2 61.083565049900393 10.214799609933984 2 67.811767613412968 2.8977577706624098 2 63.409092639238118 9.6528895297783386 2 71.636382782594865 5.280423129998284 2 74.59534140831984 1.7176823897256619 2 80.306063672230181 11.639746939629051 2 78.268186527033379 2.2589356267027161 2 13.962665478986629 0.7 2 12.468652627950936 9.3513210262425943 2 25.716131757574274 9.1139568107011346 2 30.223604034673095 6.9849613174882936 2 31.441246195967679 6.3049447063625577 2 34.701051199428193 8.5171188729414453 2 40.840604653130669 7.8137155511132637 2 44.880405656833091 6.1802541933981647 2 61.882528570307151 3.3726227910594173 2 62.727369220902666 1.6107172039555591 2 72.193278831541875 6.8933552110915617 2 74.5748054491863 10.986314213301986 2 79.501561988995704 3.5674328012407708 2 81.887841869580853 10.740686158646717 2 16.94296132858673 3.6575101859463395 2 27.387227832841539 3.5550368067125655 2 29.378671067462008 4.0388298203358293 2 41.862091831483184 5.4121625056996407 2 62.382179096737488 9.7735235173552653 2 68.81282488022994 8.1676804641431371 2 66.42626640491298 1.5293831374413707 2 77.613526080670084 7.6991811393166216 2 9.623695740208138 4.2685190826727704 2 14.592092607358413 0.7 2 17.573595340381139 3.8342499400841366 2 28.373469319413537 3.9957105602584568 2 28.857909907098776 6.7511715429631876 2 63.093332907224834 2.7814931958891602 2 66.623290869957088 2.4279561829886838 2 73.886594308628219 2.2057605753664293 2 78.434756836111518 0.7 2 7.3349372387922003 5.1606189129644173 2 14.767461410797754 5.9307850654111274 2 30.492499949458978 2.9410748170449561 2 31.539542515957159 4.8459709168138749 2 44.47531267989946 6.8253584321845384 2 62.446215936539069 9.0539335402705028 2 69.92200097828372 6.194296622525501 2 68.273420898128578 11.823920404862246 2 70.613598783531231 5.9692617059980639 2 71.248679506340409 4.1489797500515406 2 76.219775250559493 4.5228864905899764 2 80.600400765945125 10.963755509353273 2 6.8707504934059198 0.7 2 9.9994545508357149 3.7367986270310189 2 13.713976906546627 6.0504612056825513 2 15.748499741820803 12.325970957434711 2 23.507902358139912 7.0451253507535698 2 30.801496261419214 6.7712444548424671 2 41.752036319779855 4.6579063279583064 2 62.504975445559928 3.0463282567440171 2 62.549186948485307 0.7 2 76.787324617473004 5.5322064472067662 2 75.550177914411719 11.307838088099549 2 78.940531565530776 0.7 2 81.508716935652146 10.282656893917881 2 6.6447271898220936 5.8842016124660157 2 13.966643008214449 4.8051207370408324 2 27.682619609384606 4.3048324853678768 2 36.706827875403825 0.7 2 40.779501687103668 4.8053880472110677 2 63.252657736623753 7.5796418788626365 2 69.403781987023962 8.7454353890916412 2 69.269271420589263 2.4994507926913907 2 72.81184613455288 3.1239815371356174 2 74.773599887219348 0.7 2 78.065745343079797 5.1791182596799468 2 81.282862686784199 2.4385783614780876 2 8.0103211143784243 0.7 2 13.385363005960309 2.0155920220428096 2 12.763754254634096 12.044503645762433 2 15.440494928673241 6.227956410047951 2 23.215143551609557 3.0968012407529026 2 28.617156724267879 6.1954919535447877 2 64.058249574728109 3.5150037304980253 2 64.564543762258182 2.5156349444952562 2 72.639885294926415 10.636302508397941 2 71.625243215644929 7.197080856382887 2 81.75715423644634 0.7 2 10.436414451306657 4.8419380076217857 2 14.154397589573442 6.6261970382181836 2 31.269106704107443 3.2246553396823385 2 31.611187314437 3.8416334990682715 2 40.840214074537741 0.7 2 42.614472501454465 4.4631895276552509 2 62.567462813670005 8.3061515018222991 2 67.006708809475043 2.8022893491208207 2 71.055547202211002 4.8384050061809996 2 70.654509975388365 3.8039460501856941 2 75.301525655008732 3.5591361312071985 2 78.843172000411357 7.7470070788914578 2 80.037108818543444 4.2306670093004382 2 93.279712200077157 6.3484290537803165 2 13.666316534327937 7.4476470706604276 2 31.021846137716398 8.0742517949282355 2 75.788190532182654 6.9387373306670481 2 73.84897566814351 9.3719856167591651 2 75.60701447286317 4.0841918102555326 2 26.602576250929843 2.9600662834176603 2 63.074490871262441 9.1101048375318605 2 66.163931478058245 8.8554713274002328 2 77.49923334893748 5.3460952232861034 2 12.074422674106382 2.3636131186809002 2 28.350067810477316 9.7107304824146361 2 64.718417865792901 5.3017389873766749 2 64.163045904361937 4.2811498986057979 2 9.3518011933629097 9.4056180829701486 2 12.565677513201974 10.636446234467323 2 33.192339833480382 5.2443068214406248 2 60.488395741699691 4.7534260930674419 2 69.950446971759291 7.0143693756711523 2 70.964395026944345 5.4515575567704202 2 74.005090287456696 2.8546862658504186 2 79.517326621073053 8.1058670126125811 2 5.9005811373898869 8.8574832572769004 2 9.1199827037387085 0.7 2 15.465012942442124 6.9840023194907506 2 19.933579750883315 5.8822197846237287 2 26.135146483958032 6.6644329142701855 2 32.970052998467722 13.796183345691754 2 40.091318114228926 8.1928417969156033 2 61.38668612093204 11.541890148171188 2 61.206169803465436 3.4861037137317417 2 65.962297047069512 0.7 2 67.780167307234933 15.085376514869466 2 70.049767668803 12.645453946808271 2 81.193834675709155 6.895811591921194 2 6.1557561656732256 7.7039466273337753 2 17.75456773348904 4.5684516274986828 2 21.094602958555132 2.9475435279003643 2 29.956499673505789 2.811815465421772 2 34.665161422112433 0.7 2 38.78862771818838 4.6946512237609195 2 45.820306456837841 2.4795730761954649 2 48.419536131214173 4.2725262620686406 2 65.331795161260914 18.008062648025039 2 68.811261832381959 0.7 2 73.88927715542593 1.5258947201838493 2 79.168129543930448 12.636398150481931 2 76.732308315687789 0.7 2 82.942766439416886 0.7 2 7.4787524467901179 4.1676731814642176 2 16.799357437018219 7.0195356003810083 2 23.328446633555821 4.2797030559367686 2 27.533637473900061 11.553370128519505 2 32.953527004332265 10.930696083817674 2 41.753375227497031 11.733630983386885 2 50.911975376674967 6.7334757100561626 2 59.03357433629499 11.847492495405701 2 62.743659421243606 10.820062834609219 2 67.273942573163822 11.915254204393872 2 71.737730296809815 9.6245780209994081 2 74.092656912853741 7.0633120587572948 2 73.870239796107541 10.017264700405782 2 82.400128962599226 1.6706149814762215 2 3.8227085245042032 4.3569708890525458 2 9.7240571635556829 10.310752540273359 2 20.226245819370931 4.8109730021790256 2 29.792302306789267 2.2169179202047467 2 38.635073926069893 3.9737440560637158 2 40.25390845855582 0.7 2 45.946933027236454 3.2015630936529456 2 48.914858623831002 3.5638377993968353 2 59.69597324212458 0.7 2 66.523197413865091 12.817731863158484 2 69.636938451660924 0.7 2 82.23302278388266 2.416680794366342 2 93.631706421100915 3.6340682492989869 2 1.891597199377246 10.091119090171759 2 4.0782655657394828 6.5941413512542617 2 9.3286420147935019 3.3809395294612461 2 10.957312023715128 3.0251009354766838 2 15.324034310041229 10.722664825998136 2 18.145387400521535 9.69102108277594 2 27.533061767948222 6.3469959075533309 2 27.914331099234481 10.845152987582972 2 31.799589813035716 14.253330791497074 2 43.561602434805806 11.849966040643206 2 58.773998344884291 10.560788677821286 2 62.615783182491093 2.2343849536400118 2 63.943195520104112 2.9207680875496154 2 71.713322269701322 8.5961639444310478 2 71.886979735508177 10.323809076251628 2 92.900074171344627 3.6550930176710197 2 94.362795847371686 7.3596690672271317 2 0.7 3.6483816891171585 2 3.0488741208938728 0.7 2 7.5183758669634564 11.724086272099145 2 14.327154267817731 2.3576550954731266 2 34.226581863417714 17.174061772972721 2 26.130898059767748 0.7 2 35.521698759086007 1.9126591356684559 2 36.335673821922647 2.0300569254819347 2 44.840757348799848 2.9056303651464921 2 47.257540220612576 8.6421901943033923 2 66.957128047035241 1.8561387533717471 2 73.809337751714693 0.7 2 79.539511160336403 11.521974820901118 2 75.906730348901974 2.7814418802754912 2 82.092883051127643 3.0193237001522899 2 95.138513292966678 8.0890666068502846 2 95.88501194339473 2.8494374125389323 2 0.7 9.2809716559013022 2 6.5686769957771176 8.6096636187562599 2 9.9293564246514308 5.0136244341548943 2 10.575579169953457 13.755751310149964 2 16.438813980013194 6.4357647540894583 2 23.090616487460341 6.2998053829084073 2 28.009620045661716 14.727546202827096 2 32.900886107037834 14.685315583242142 2 42.757411663622122 11.252927299164451 2 44.227208408028673 12.464238380752336 2 51.161485340412341 5.4132899099376006 2 63.117071126187255 10.238713186744722 2 66.667726859886955 15.266333815725982 2 69.640779803469187 13.672206190678864 2 72.488941234482297 4.1991803054495591 2 73.468107759715409 14.153269886326967 2 79.609466191975926 0.7 2 93.739783722610085 0.7 2 2.404600292989806 3.1498100381421201 2 4.8736810170575282 3.7174551726901184 2 15.469428194540852 2.5718710639421194 2 20.67000822884091 5.7089815382901596 2 26.439300535699115 1.7036297083563947 2 26.33367536734519 12.219265011333258 2 33.574781549706969 13.05789124777419 2 33.969804062405991 0.7 2 42.027469333938477 0.7 2 43.577700937288874 3.9009555685669688 2 58.511394450074157 3.42770584625457 2 64.186277489984676 11.881237342069081 2 71.751357720315866 4.038251611937909 2 80.128069169995456 3.6685783133789229 2 93.232846607235388 2.7698817515257752 2 4.6519735259723483 6.3652326412552975 2 9.4585410796969853 2.5482528861486062 2 14.081643776139813 1.2398776693601994 2 11.907486464540368 8.7701401946862578 2 16.870217756833227 9.8758581914568833 2 20.46677335587075 8.3427740057387574 2 24.703720661872897 7.5928149408619676 2 29.264787308090867 9.5402351643903049 2 34.841554717210272 9.2596057465511485 2 35.311778496504914 5.6108408852990825 2 40.79107170436464 9.2206251610925296 2 41.929248497198053 9.3037189623421686 2 45.456757610793723 10.279226169707414 2 50.622801489790589 7.6358806875610901 2 59.272670362149803 16.081698061509481 2 61.986333527030652 0.7 2 65.455633479666858 0.7 2 68.836071655813541 15.443624970991205 2 70.516164522064713 6.6496147183421659 2 72.7712640315562 7.7204937735080605 2 70.557803392069559 13.683818242688444 2 77.116959966589008 10.670488542771395 2 78.213527229317805 1.7261268103015468 2 81.088946484755212 5.9408777046825429 2 85.716740523188534 3.15787399635416 2 97.578735456880182 6.9274332771224829 2 0.7 0.7 2 6.1507236815488131 0.7 2 7.1011074847563531 8.1947743349954933 2 16.91627821802641 5.4593569263227293 2 15.305495315113141 15.097775419925128 2 19.33819024772437 4.631484691333875 2 25.15269559214336 3.7351111765908489 2 30.730834185074233 1.7453146011959106 2 37.893715227133647 4.0143922588892824 2 41.046786916031543 4.1949798967120167 2 44.248158348676483 0.7 2 48.251135868393028 3.3255488925400702 2 59.002481717637046 6.9055293519588661 2 65.184023753554285 5.8261388688715758 2 68.236549052859147 11.093593241192119 2 69.823206099032816 2.0113894935169405 2 73.316525052073516 0.7 2 77.519615935818493 14.943288719660849 2 77.816881143269185 1.250713916169603 2 80.919270857592196 4.9221041769308833 2 97.510283446862488 5.8076402133243654 2 6.7578837416609989 4.0798821511091843 2 14.227141623675134 2.9535078405886441 2 9.9838088089405659 11.181537046702235 2 17.033614889443882 7.7307140730782713 2 24.359933107751303 3.3463927502477326 2 26.827187726989621 6.2710645749759424 2 28.114944519060323 13.788284320503326 2 29.448543533223063 6.3575997630573013 2 35.558895684513011 9.6284368927858157 2 38.283986755078097 8.359207490440582 2 42.546565611851449 9.9028886031169741 2 49.031174957384557 8.1386487605442319 2 57.054192463290022 14.388611285901167 2 62.009632715555398 10.298582030316579 2 64.594947540314294 6.623333637793138 2 67.837322790049257 3.8444067583882342 2 67.373355245463912 14.371258236900639 2 69.346409236086529 11.700283566490839 2 71.256909892757562 6.1677953426899474 2 76.616189687712108 17.985906750438655 2 73.305177477558274 10.223159340385392 2 82.266649064727957 0.7 2 79.778959857749285 12.314826104990562 2 96.483224909361795 12.570374080752746 2 2.7506440939624652 6.4470303197196168 2 5.6138082314301156 6.1514867101197508 2 8.8890701834140984 8.8671163306848833 2 10.705871311218202 11.867466605579965 2 14.647273608343824 11.063763534587615 2 20.363102327908454 3.4723748428712495 2 29.936979734609416 0.7 2 32.104986732717329 4.4409913448010512 2 38.976234099616853 3.484065694472434 2 42.65401259607561 0.7 2 45.213764428482925 5.3716527271375485 2 48.895297041149242 2.6052290823840365 2 55.455992855698462 2.3786057275701329 2 59.015958675371941 0.7 2 62.699823937299179 7.4656738896766504 2 68.466878629020201 7.6467815547701266 2 64.688218382484635 13.761129718458228 2 69.466973174915026 6.6396374013263939 2 71.430245958320498 0.7 2 74.957849454470448 4.1784260796201673 2 79.282928394125548 10.718425160545003 2 81.919326841936424 3.9517340391401121 2 96.609091134724991 0.7 2 2.3042709489387381 10.797861432751192 2 5.1519780536371291 9.2842942942913602 2 8.564948863989752 3.6209672503932073 2 9.7274948861325665 0.7 2 17.449503684596426 9.7526067407975301 2 18.105163400513511 8.3742781546272003 2 27.414563370827167 5.4871714440799266 2 28.789125122786054 10.257791648291205 2 31.166074948307884 10.244781476361773 2 31.578175060500094 6.9821651999603658 2 42.931099796439327 10.605647261757682 2 61.696121405482756 10.836546565577168 2 61.196260260870723 2.799957528527012 2 63.676802242036949 0.7 2 71.133603904617516 9.8232336474293689 2 71.877500138894831 11.912492741739014 2 82.24288901292293 8.2815333030017921 2 92.196106636137131 7.0479196885253899 2 95.095082102554045 6.9522823273264613 2 0.7 3.0384523025364936 2 4.9360980918811661 0.7 2 9.0333881605153952 10.435867294024071 2 12.636177212078369 15.905783658929177 2 14.857254104952624 2.8803725867655205 2 20.221234387773499 0.7 2 26.688406005786472 0.7 2 34.371095869507656 1.2838814673917514 2 36.764689243295955 2.4188859690423605 2 39.851981043789316 4.0307212764704277 2 44.325195967358724 3.2908748445064471 2 47.650356116029812 8.0166514482031008 2 56.185045601644774 3.5335433905327656 2 59.586687028188848 8.9928579660200327 2 61.085953181883326 17.6733023065953 2 69.224122120239215 0.7 2 72.728434252591768 0.7 2 78.76930529525319 11.517927702717145 2 74.545273018200149 2.4224421433142851 2 82.976843229085389 2.1594795209802955 2 94.941481538825442 9.1364469401846922 2 97.15413703724262 2.6375861657953306 2 0.7 9.99492379348907 2 9.5031029708126624 5.656149227744284 2 11.695738843070734 11.92019528433277 2 17.401142626378821 5.0603055230263339 2 22.247492302813981 2.6719583369313882 2 28.223787896965238 12.114701704278632 2 31.084543619224146 5.4692348633472498 2 33.375135370647115 11.369988012444965 2 37.996795505720428 6.0663983466737923 2 49.454919625647989 3.1609146059268873 2 68.326950632582808 13.980845783810258 2 74.166443304585968 6.1701510422730541 2 74.522677857336248 12.26118731388706 2 81.090175729193078 0.7 2 0.7 4.4565971996448823 2 3.3228451813794897 6.0813711224617695 2 14.707042592011609 1.6687359573172293 2 22.669024641413451 5.8135242291354441 2 26.41734212244079 3.7555850569624032 2 34.275287691820935 12.986757738661442 2 30.469029914800306 0.7 2 45.018786899718869 0.7 2 43.980867730006153 4.426542869657097 2 56.576094127527753 4.8366608759811571 2 59.006438689919975 2.6251731759452155 2 63.880625983751059 10.553084088230497 2 69.788535011581217 3.159189887857933 2 81.540061795121474 4.9978416744428831 2 91.614316686348559 3.4740594142446239 2 95.994186123483161 2.3803746949421796 2 12.697057718155731 6.7360510171246784 2 32.156389925484056 7.4604698316545299 2 43.834380634747696 6.2473969829658325 2 74.975528288315274 6.6578429499421858 2 78.33342439030352 8.6202317011956993 2 76.009845618616666 3.5408236523107952 2 25.662603367344282 2.7684517910806905 2 64.172203661919355 9.4832378028657498 2 66.621328240726513 9.2816403077590444 2 78.816059844852759 5.2189711621326156 2 14.475722178855204 5.463371372422138 2 27.960296523685617 6.8049924185578616 2 61.64979279036784 4.0562189843598198 2 65.755323313403352 5.8999874013430986 2 12.212393322253012 6.0981452048746529 2 14.263695035649025 7.6850594031184567 2 32.354007166202692 4.9651763617613396 2 60.50062670131593 5.5122244538249117 2 65.44342754761422 6.4854251300162682 2 67.311540902432952 3.4386679754880434 2 74.817818043115977 5.9691993935224001 2 76.280562700676128 11.079048791061453 2 2.901096058569085 7.6969269277015675 2 6.1840742791578913 6.4906242761321264 2 8.796267903761553 2.9191510473960616 2 11.136235033168484 0.7 2 13.458116126470221 6.5740410128614561 2 16.077154712796517 7.2811024622739398 2 20.832189104449387 6.3775905581015966 2 24.109684533025931 7.7027536308516646 2 29.946648367982604 9.3005348081959625 2 33.896274386409388 8.2050678015092213 2 35.212789045585474 7.9525329289117153 2 38.500116566227852 10.627228815602303 2 41.529159902957844 6.6294107665310547 2 44.810645125617022 7.6517967180432693 2 49.685473325384336 8.1145013264862946 2 61.423913212469891 13.682717719443817 2 59.719569896735059 1.9822529204626524 2 64.322224559454668 0.7 2 69.774392186911612 9.2780643187667504 2 73.285613400188836 8.882553122632654 2 73.050524057589627 13.353854308777864 2 75.437950212801198 10.587298698350398 2 78.235578214391538 4.5880958463272954 2 81.648854013256226 7.4008406567228056 2 86.200665647460184 5.6039302383836525 2 95.933151487939824 8.4340422581255314 2 1.5167205330654767 0.7 2 4.1162959460488233 1.4442487156760981 2 6.5251503054096007 7.18553430161605 2 14.43062793047674 4.261384568598964 2 15.400850043507869 13.294739124391413 2 20.393451585465289 2.7438344381497317 2 25.761149618468323 3.3831460344759243 2 27.950981257498437 16.384330129830648 2 30.202584951226896 1.6142220607859854 2 35.405375346076156 0.7 2 37.877437203214477 5.4129046892310395 2 40.393016971836609 1.575013042205478 2 44.739250391705468 1.3785504846250176 2 46.638396809116344 3.3616722895926672 2 56.98352156126748 0.7 2 59.92195858360121 5.2891904197546484 2 67.719048241477424 7.7083088619346691 2 67.561131943257038 11.33305118070972 2 65.635208873081382 15.941417048487621 2 69.155691384515123 1.6543862367580866 2 73.216426531598188 2.5236694196111804 2 79.493652741857062 15.542277694623767 2 75.199970637070365 2.8187102616292052 2 78.06601542042452 5.8946400583826239 2 85.017435737934349 0.7 2 83.483133020587218 16.948776166327274 2 97.239309193065552 5.2171631109553838 2 7.9020069019279564 3.4020517056438417 2 1