<?xml version="1.0" ?>
<VTKFile byte_order="LittleEndian" type="UnstructuredGrid" version="0.1">
<UnstructuredGrid>
<Piece NumberOfCells="0" NumberOfPoints="137">
<Points>
<DataArray NumberOfComponents="3" format="ascii" type="Float32">3.0415370390731602 8.0340069402941552 2 6.677316905144326 1.980135516968913 2 18.288249051436129 10.988697050928463 2 20.901251572988091 1.2 2 24.32224199574868 1.2 2 38.488563139100656 9.6735817346564748 2 40.856904365587802 13.960434259911448 2 46.123503896708385 5.5872984706943321 2 50.800172923550448 2.971683807513946 2 54.364802298379054 10.095382591412552 2 57.011814952826633 7.3025742748813238 2 59.650662757121978 8.9616275532045897 2 83.302993065718226 4.5938916095205657 2 86.89438368493758 9.2189756946882238 2 90.444992886728414 7.9855350983251405 2 91.451936422780861 11.59136788215045 2 93.193945659561948 12.529953917784656 2 98.6 1.4 2 3.1667931275757333 2.3710912848403098 2 18.816035025978163 4.7212015646318033 2 22.262622994418869 12.556368019371396 2 23.643669003148364 8.3184052460219817 2 37.320751588057441 1.4 2 39.84997323686504 1.4 2 45.771209997833829 6.8391468996471101 2 47.853254107246777 13.34297762308217 2 51.88698712152042 3.4786359927480834 2 53.519050801323374 2.8305232046801558 2 54.579825441742457 15.181124736039411 2 58.091604303666578 1.2 2 83.299995192776819 7.4339713885307566 2 86.010605637211469 4.6422696034493409 2 87.699693390363038 5.0432487702278097 2 90.617379639851535 1.4 2 95.090260514241493 4.9232662738876538 2 98.6 7.8528756730686151 2 3.569551381458699 13.218939110147847 2 6.7456698089324547 4.5511506622001248 2 18.512230868315989 13.308107336691471 2 35.514307126983482 6.8359519856614819 2 38.281091973156713 12.049394401583395 2 46.165432107642104 1.4 2 51.772430692939295 5.4777821657555323 2 51.179303963895109 10.93304929395647 2 52.554150999589289 9.1667003612498252 2 55.397484298031053 6.590000328063244 2 57.765021081358917 5.6958125318871682 2 84.000374737456639 1.2 2 85.396720957901152 8.8475718586990872 2 89.647642209124612 12.897441405679878 2 91.791332383117776 9.4506219625155872 2 94.756827975967497 14.347473992525853 2 98.6 6.0148133132022048 2 2.7625879234200093 4.3997623902123673 2 6.4475991568364304 14.053489769517402 2 17.211704877246202 2.4762170610740357 2 22.547146371053653 15.221149106787184 2 35.842441799523385 5.178072472662957 2 39.522030504255 6.1621976545544506 2 47.279352480826653 10.777800491934777 2 52.245126491900677 13.626818852493832 2 52.991992436528129 4.4820637490974562 2 55.321502906345664 1.4 2 52.955976451862441 11.449225043729221 2 59.199376674792902 4.9734209981100861 2 84.227328902306411 11.47038328151239 2 86.571107265902754 1.4 2 88.847292110064672 2.9928383551447202 2 89.364362226239194 4.8377409900068464 2 94.642828370415359 3.5312107952562828 2 98.6 11.851140040008572 2 19.812887770928739 9.5077856037350106 2 23.09199184140039 1.4 2 36.680082537511744 10.618335632413194 2 43.120635684378961 14.423875878688866 2 46.720965310160942 3.2547294402351437 2 50.801219248791718 1.4 2 51.264013988249722 7.3874169778998029 2 56.028124704774164 11.107427000130794 2 56.172709009825923 8.9682075472083387 2 58.852817577362394 7.2686483208837922 2 82.583735766416396 5.955163241889422 2 88.650557756597749 8.8570090331708045 2 89.871679322957647 10.275486330084515 2 91.581413171868931 14.351201559904252 2 93.517472898310388 10.07440699892339 2 98.6 3.1179909019208507 2 7.4222244087479146 11.21104835830663 2 18.403370134301824 3.5009191456773743 2 24.221422255292204 13.495259830869932 2 23.423799273694108 10.331505671347161 2 34.831850029858842 3.2887763739856668 2 39.788857961277436 3.1962801248046904 2 47.128301183673159 8.8603106439858461 2 49.925055443780792 12.602598768827104 2 52.420258320227624 1.4 2 54.062233270869271 1.4 2 56.606187981653243 13.628015721751538 2 58.418506445645697 2.7701291810739157 2 82.016205231048971 8.8531354850697834 2 86.051082974811223 6.6636701471303521 2 87.418077011652599 3.3386097571776232 2 90.32228410699588 3.671938019000327 2 94.204070784315874 6.2823607950795637 2 98.6 9.7470212252875879 2 4.2872298835224978 10.329140675681293 2 6.1627481922366636 3.3963661720516658 2 17.055719043455198 15.279376558303293 2 22.277583162663174 6.9005239081249821 2 21.948760555274209 1.4 2 36.672644199752362 8.7777441442175039 2 38.657273391666166 14.655077617958241 2 47.593931577357829 1.4 2 50.432329851087722 8.8934472545494376 2 52.845848723339479 7.0614092797849457 2 54.438705758100589 8.0997097667396538 2 58.256719912664792 3.7390886567219441 2 87.300569517887439 7.0764210805298591 2 88.08561411240602 11.205084444006024 2 92.01095322096738 7.3741816413437284 2 97.387941841942677 15.176430608755407 2 98.6 4.4037357834263036 2 3.1191153613731082 6.3019086224784342 2 8.617905750178231 15.316379471905037 2 17.78139268834807 1.4 2 20.348090272707655 14.484202903249399 2 21.673775972731633 8.4349450320976445 2 45.719342189462942 12.312882987567248 2 50.151955469122768 15.088970415523226 2 53.918082713285173 5.734186479634455 2 54.576402292713688 12.711280738675537 2 83.997928734051513 9.3960811589206905 2 87.865710721878429 1.4 2 89.301290297964513 1.4 2 88.767610985069197 6.9012279727137686 2 94.244284949274203 1.2 2 96.911023379027654 12.924440272512062 2 </DataArray>
</Points>
<Cells>
<DataArray Name="connectivity" format="ascii" type="Int32">0</DataArray>
<DataArray Name="offsets" format="ascii" type="Int32">0</DataArray>
<DataArray Name="types" format="ascii" type="UInt8">1</DataArray>
</Cells>
<PointData>
<DataArray Name="Points" NumberOfComponents="3" format="ascii" type="Float32">3.0415370390731602 8.0340069402941552 2 6.677316905144326 1.980135516968913 2 18.288249051436129 10.988697050928463 2 20.901251572988091 1.2 2 24.32224199574868 1.2 2 38.488563139100656 9.6735817346564748 2 40.856904365587802 13.960434259911448 2 46.123503896708385 5.5872984706943321 2 50.800172923550448 2.971683807513946 2 54.364802298379054 10.095382591412552 2 57.011814952826633 7.3025742748813238 2 59.650662757121978 8.9616275532045897 2 83.302993065718226 4.5938916095205657 2 86.89438368493758 9.2189756946882238 2 90.444992886728414 7.9855350983251405 2 91.451936422780861 11.59136788215045 2 93.193945659561948 12.529953917784656 2 98.6 1.4 2 3.1667931275757333 2.3710912848403098 2 18.816035025978163 4.7212015646318033 2 22.262622994418869 12.556368019371396 2 23.643669003148364 8.3184052460219817 2 37.320751588057441 1.4 2 39.84997323686504 1.4 2 45.771209997833829 6.8391468996471101 2 47.853254107246777 13.34297762308217 2 51.88698712152042 3.4786359927480834 2 53.519050801323374 2.8305232046801558 2 54.579825441742457 15.181124736039411 2 58.091604303666578 1.2 2 83.299995192776819 7.4339713885307566 2 86.010605637211469 4.6422696034493409 2 87.699693390363038 5.0432487702278097 2 90.617379639851535 1.4 2 95.090260514241493 4.9232662738876538 2 98.6 7.8528756730686151 2 3.569551381458699 13.218939110147847 2 6.7456698089324547 4.5511506622001248 2 18.512230868315989 13.308107336691471 2 35.514307126983482 6.8359519856614819 2 38.281091973156713 12.049394401583395 2 46.165432107642104 1.4 2 51.772430692939295 5.4777821657555323 2 51.179303963895109 10.93304929395647 2 52.554150999589289 9.1667003612498252 2 55.397484298031053 6.590000328063244 2 57.765021081358917 5.6958125318871682 2 84.000374737456639 1.2 2 85.396720957901152 8.8475718586990872 2 89.647642209124612 12.897441405679878 2 91.791332383117776 9.4506219625155872 2 94.756827975967497 14.347473992525853 2 98.6 6.0148133132022048 2 2.7625879234200093 4.3997623902123673 2 6.4475991568364304 14.053489769517402 2 17.211704877246202 2.4762170610740357 2 22.547146371053653 15.221149106787184 2 35.842441799523385 5.178072472662957 2 39.522030504255 6.1621976545544506 2 47.279352480826653 10.777800491934777 2 52.245126491900677 13.626818852493832 2 52.991992436528129 4.4820637490974562 2 55.321502906345664 1.4 2 52.955976451862441 11.449225043729221 2 59.199376674792902 4.9734209981100861 2 84.227328902306411 11.47038328151239 2 86.571107265902754 1.4 2 88.847292110064672 2.9928383551447202 2 89.364362226239194 4.8377409900068464 2 94.642828370415359 3.5312107952562828 2 98.6 11.851140040008572 2 19.812887770928739 9.5077856037350106 2 23.09199184140039 1.4 2 36.680082537511744 10.618335632413194 2 43.120635684378961 14.423875878688866 2 46.720965310160942 3.2547294402351437 2 50.801219248791718 1.4 2 51.264013988249722 7.3874169778998029 2 56.028124704774164 11.107427000130794 2 56.172709009825923 8.9682075472083387 2 58.852817577362394 7.2686483208837922 2 82.583735766416396 5.955163241889422 2 88.650557756597749 8.8570090331708045 2 89.871679322957647 10.275486330084515 2 91.581413171868931 14.351201559904252 2 93.517472898310388 10.07440699892339 2 98.6 3.1179909019208507 2 7.4222244087479146 11.21104835830663 2 18.403370134301824 3.5009191456773743 2 24.221422255292204 13.495259830869932 2 23.423799273694108 10.331505671347161 2 34.831850029858842 3.2887763739856668 2 39.788857961277436 3.1962801248046904 2 47.128301183673159 8.8603106439858461 2 49.925055443780792 12.602598768827104 2 52.420258320227624 1.4 2 54.062233270869271 1.4 2 56.606187981653243 13.628015721751538 2 58.418506445645697 2.7701291810739157 2 82.016205231048971 8.8531354850697834 2 86.051082974811223 6.6636701471303521 2 87.418077011652599 3.3386097571776232 2 90.32228410699588 3.671938019000327 2 94.204070784315874 6.2823607950795637 2 98.6 9.7470212252875879 2 4.2872298835224978 10.329140675681293 2 6.1627481922366636 3.3963661720516658 2 17.055719043455198 15.279376558303293 2 22.277583162663174 6.9005239081249821 2 21.948760555274209 1.4 2 36.672644199752362 8.7777441442175039 2 38.657273391666166 14.655077617958241 2 47.593931577357829 1.4 2 50.432329851087722 8.8934472545494376 2 52.845848723339479 7.0614092797849457 2 54.438705758100589 8.0997097667396538 2 58.256719912664792 3.7390886567219441 2 87.300569517887439 7.0764210805298591 2 88.08561411240602 11.205084444006024 2 92.01095322096738 7.3741816413437284 2 97.387941841942677 15.176430608755407 2 98.6 4.4037357834263036 2 3.1191153613731082 6.3019086224784342 2 8.617905750178231 15.316379471905037 2 17.78139268834807 1.4 2 20.348090272707655 14.484202903249399 2 21.673775972731633 8.4349450320976445 2 45.719342189462942 12.312882987567248 2 50.151955469122768 15.088970415523226 2 53.918082713285173 5.734186479634455 2 54.576402292713688 12.711280738675537 2 83.997928734051513 9.3960811589206905 2 87.865710721878429 1.4 2 89.301290297964513 1.4 2 88.767610985069197 6.9012279727137686 2 94.244284949274203 1.2 2 96.911023379027654 12.924440272512062 2 </DataArray>
<DataArray Name="forces" NumberOfComponents="3" format="ascii" type="Float32">0.0086927814966520633 0.14534286607614089 0.0 0.0033981270611474906 0.12868525971105593 0.0 -0.019490422361593984 0.29810457024748038 0.0 -0.03714069545995291 -0.76191511065065065 0.0 -0.018291920047265268 -1.0678263908665031 0.0 0.056828762069497843 0.21183202042889712 0.0 0.015476306273405474 0.41063303203518742 0.0 -0.026937381533790494 0.21525398423755407 0.0 0.065496652263693944 0.2082744345257373 0.0 -0.049985496010548233 0.30044536823569112 0.0 -0.066644225321172257 0.21436752139841483 0.0 -0.061946630258914614 0.091880890769094115 0.0 0.11741409267003761 0.022290231036037889 0.0 0.08743087659725407 0.31119151489656893 0.0 0.0021304741624577073 0.29900313266786055 0.0 0.018786768592540803 0.48190902526357082 0.0 0.0273936702059695 0.41216476619562648 0.0 1.767581026441547 -1.3792723781017711 0.0 0.045837168032147851 0.0004745732061711555 0.0 -0.010587655681726454 0.029142450314964829 0.0 0.01783235149924596 0.45945512260971411 0.0 -0.040787973479390227 0.27490735903633801 0.0 0.058711621423921223 -1.4387581039335915 0.0 -0.079095851533108719 -1.570222704596641 0.0 -0.030561604787451957 0.19990769253801566 0.0 0.019927251669311086 0.48368700402996823 0.0 0.10906487136739434 0.11234593334050125 0.0 0.03898934512124369 0.18860298850219082 0.0 -0.19842389853045078 0.48628864952122991 0.0 -0.052530947774551764 -1.3476000623669477 0.0 0.036973423098050351 0.28354730824102392 0.0 -0.078659735194518285 0.22799098870000842 0.0 -0.02881787034146871 0.17997272705716505 0.0 -0.013202492594965309 -1.7894764036944726 0.0 -0.18066013724093771 0.20131401079966277 0.0 1.4204090931121636 0.25316818131379443 0.0 0.11995822292479243 0.56740852994564672 0.0 -0.08045614452446076 0.074749991848163 0.0 -0.048340471022662312 0.4228676105869093 0.0 -0.025752212077537612 0.079575489113263287 0.0 0.028898038502306531 0.41784881839738625 0.0 0.03160224705900605 -1.2804016837356185 0.0 -0.028865815215667612 0.18693151801708247 0.0 -0.0096238884205753217 0.32908296353684563 0.0 -0.055873820689991027 0.28448565447278923 0.0 -0.047126853748961417 0.17721959014215183 0.0 -0.013804438952503079 0.21257038292169239 0.0 0.048622059226256897 -0.95585602533695457 0.0 0.060840693112321542 0.35783377549473799 0.0 0.04418612094462504 0.47054454664704737 0.0 -0.035628746335806094 0.41898018176367591 0.0 0.027321595255920317 0.51534021787451167 0.0 2.0021393997351096 0.18446470029909318 0.0 -0.081729712519691633 -0.0018671256127446301 0.0 -0.069694597965310828 0.46287064698679464 0.0 0.051353852854775492 0.22835052556099536 0.0 0.059228738249804458 0.5259796112957662 0.0 0.098406416340927588 0.11687769505073638 0.0 0.038894779021022008 0.1822412120567603 0.0 0.029963941001643679 0.51845167741593978 0.0 0.011887093329199516 0.55880570909003469 0.0 -0.046364535934964257 0.30067658906606098 0.0 -0.063793910226551676 -1.5311114670395987 0.0 -0.044827868064331144 0.3814081229157798 0.0 -0.048546362216258077 0.11520172392803246 0.0 -0.034159870282285773 0.49398694036513313 0.0 0.024358572726626893 -1.5315201812285659 0.0 -0.032348316976415534 0.15020230065050111 0.0 -0.013020383418181125 0.22836734510544854 0.0 -0.14511306656047382 0.14863165295651196 0.0 0.88666937803176615 0.40781905021379589 0.0 -0.011792607278552289 0.33269673905940472 0.0 -0.037848633190360248 -1.0863400141418329 0.0 0.057726068123692797 0.28742581706923997 0.0 0.11962353758528875 0.34971005049330067 0.0 0.034659727378590688 0.1502188705685418 0.0 0.018381193531229911 -1.6419401957243149 0.0 -0.061394722425607728 0.23317208884907389 0.0 -0.11309270982076991 0.44758557768228446 0.0 -0.0067758738113400385 0.30801403125442739 0.0 -0.074631560355935433 0.27182270070427306 0.0 0.020517114044330473 0.16454765915744907 0.0 0.037898348481072541 0.36187156274344595 0.0 -0.013928412732658213 0.40242378649355909 0.0 0.062007993746534124 0.54810780343001142 0.0 0.00045984047969626837 0.30085346219234538 0.0 2.0430922758220049 0.10632775785559578 0.0 0.049625900188882216 0.32805780826378234 0.0 0.047981073490433887 0.074600731403721199 0.0 0.056801583766924596 0.45900861037426383 0.0 0.0050917599508351272 0.37296789606536102 0.0 0.0061664675798920043 0.098919032123550341 0.0 0.14520018775060459 0.13662348832248528 0.0 0.0539985651435183 0.31662706772080806 0.0 0.065145034587234266 0.43328491138684738 0.0 -0.030603713958007095 -1.8057589082116601 0.0 -0.10200892597517489 -1.2602774034793502 0.0 -0.060532134460570375 0.49616379466758076 0.0 -0.096731910245074659 0.039979418524899335 0.0 0.045194376002918604 0.35249864014121091 0.0 -0.019554682694140638 0.31381220630910167 0.0 0.0072192022191057831 0.15076494556371772 0.0 -0.024535202721131411 0.15069748927112867 0.0 -0.05286778733274522 0.17767913085193807 0.0 1.2669209800856014 0.37212574647572927 0.0 -0.030558959100762215 0.17311451068451533 0.0 0.017909376477753036 0.13143098426082114 0.0 -0.18800740389708617 0.37853347539859861 0.0 0.00041436786066302231 0.18993691646671024 0.0 -0.043970414077461023 -0.94529280681027872 0.0 -0.020932609422791848 0.2457459109777646 0.0 0.0037518265005688778 0.55964613075249836 0.0 0.013131850345690532 -1.8705906737380862 0.0 -0.074499266128975727 0.25303779092507517 0.0 -0.015871978989079993 0.27331031569694497 0.0 0.0036403118049890409 0.24422922863336238 0.0 -0.0047491391249523951 0.11413864440188111 0.0 0.0029534526228669478 0.19437292172224843 0.0 -0.0063792245402767428 0.45833115270450508 0.0 -0.069624181838038229 0.30130103954341547 0.0 0.14638097535618705 0.50546736986997942 0.0 1.6653699911452724 0.20314645174784435 0.0 -0.01973925803172652 0.056691148226142962 0.0 -0.061076447501932515 0.56334577668412289 0.0 -0.10238957466245258 -2.0007504853737323 0.0 0.014208296408168069 0.44413468771257636 0.0 -0.044911445200959577 0.27602798881551527 0.0 -0.15349806549631251 0.4930768427193713 0.0 -0.17634006491486071 0.44600608733150304 0.0 -0.007123287459247285 0.17218811592065256 0.0 -0.073376398864840708 0.43468602312332505 0.0 0.050974618968359198 0.37388431953167112 0.0 0.023528492344937479 -1.6729961337410393 0.0 -0.015339084427909516 -1.5728380435868017 0.0 -0.03338677782107391 0.32374816159982722 0.0 -0.032805074058516334 -1.3816297401923205 0.0 -0.076081855193668876 0.47421391817453357 0.0 </DataArray>
<DataArray Name="radii" format="ascii" type="Float32">1.4 1 1.4 1.2 1.2 1.4 1.4 1.2 1.4 1.4 1.4 1.4 1.2 1.4 1.4 1.4 1.4 1.4 1.2 1.2 1.4 1.4 1.4 1.4 1.4 1.4 1.4 1.4 1.4 1.2 1.4 1.4 1.4 1.4 1.4 1.4 1.4 1.4 1.4 1.4 1.4 1.4 1.2 1.4 1.4 1.4 1.4 1.2 1.4 1.4 1.4 1.4 1.4 1.2 1.4 1.4 1.4 1.4 1.4 1.4 1.4 1.4 1.4 1.4 1.4 1.4 1.4 1.4 1.4 1.4 1.4 1.4 1.4 1.4 1.4 1.2 1.4 1.4 1.4 1.4 1.4 1.4 1.4 1.4 1.4 1.4 1.4 1.4 1.2 1.4 1.4 1.2 1.4 1.4 1.4 1.4 1.4 1.4 1.2 1.4 1.4 1.4 1.4 1.4 1.4 1.4 1.4 1.4 1.4 1.4 1.4 1.4 1.4 1.4 1.4 1.4 1.4 1.4 1.4 1.4 1.4 1.4 1.2 1.4 1.4 1.4 1.4 1.4 1.4 1.4 1.4 1.4 1.4 1.4 1.4 1.2 1.4 </DataArray>
</PointData>
<CellData/>
</Piece>
</UnstructuredGrid>
</VTKFile>
