<?xml version="1.0" ?>
<VTKFile byte_order="LittleEndian" type="UnstructuredGrid" version="0.1">
<UnstructuredGrid>
<Piece NumberOfCells="0" NumberOfPoints="30">
<Points>
<DataArray NumberOfComponents="3" format="ascii" type="Float32">1.4 1.4 2 5.4983747318440868 1.4 2 9.6096959906180572 1.4 2 11.66831015980531 1.4 2 13.725579417179278 1.4 2 15.778901279400069 1.4 2 19.866874404071158 1.4 2 25.947668965733875 1.4 2 27.963318266879142 1.4 2 29.974847921362979 1.4 2 31.983133330218642 1.4 2 33.98894193275121 1.4 2 37.9955657775104 1.4 2 41.998391068000799 1.4 2 43.999078141253726 1.4 2 47.99978731770269 1.4 2 58.001608931999208 1.4 2 62.0044342224896 1.4 2 64.007085235099481 1.4 2 66.011058067248797 1.4 2 68.016866669781365 1.4 2 70.025152078637035 1.4 2 72.036681733120872 1.4 2 74.052331034266146 1.4 2 76.073037893736668 1.4 2 78.09971783300179 1.4 2 80.133125595928846 1.4 2 84.221098720599926 1.4 2 92.44758610344185 1.4 2 96.552006530692793 1.4 2 </DataArray>
</Points>
<Cells>
<DataArray Name="connectivity" format="ascii" type="Int32">0</DataArray>
<DataArray Name="offsets" format="ascii" type="Int32">0</DataArray>
<DataArray Name="types" format="ascii" type="UInt8">1</DataArray>
</Cells>
<PointData>
<DataArray Name="Points" NumberOfComponents="3" format="ascii" type="Float32">1.4 1.4 2 5.4983747318440868 1.4 2 9.6096959906180572 1.4 2 11.66831015980531 1.4 2 13.725579417179278 1.4 2 15.778901279400069 1.4 2 19.866874404071158 1.4 2 25.947668965733875 1.4 2 27.963318266879142 1.4 2 29.974847921362979 1.4 2 31.983133330218642 1.4 2 33.98894193275121 1.4 2 37.9955657775104 1.4 2 41.998391068000799 1.4 2 43.999078141253726 1.4 2 47.99978731770269 1.4 2 58.001608931999208 1.4 2 62.0044342224896 1.4 2 64.007085235099481 1.4 2 66.011058067248797 1.4 2 68.016866669781365 1.4 2 70.025152078637035 1.4 2 72.036681733120872 1.4 2 74.052331034266146 1.4 2 76.073037893736668 1.4 2 78.09971783300179 1.4 2 80.133125595928846 1.4 2 84.221098720599926 1.4 2 92.44758610344185 1.4 2 96.552006530692793 1.4 2 </DataArray>
<DataArray Name="forces" NumberOfComponents="3" format="ascii" type="Float32">-0.75234506919802646 0.0 0.0 0.0038963386029342573 0.0 0.0 0.0014356413230451892 0.0 0.0 -0.0013597272827148288 0.0 0.0 -0.0040436324347439268 0.0 0.0 -0.0060035011441783581 0.0 0.0 -0.0072027926467050918 0.0 0.0 -0.0050595778518456314 0.0 0.0 -0.0041106466643512363 0.0 0.0 -0.0032294265111119103 0.0 0.0 -0.0024596972543911022 0.0 0.0 -0.0018186872324577052 0.0 0.0 -0.00091121757525058911 0.0 0.0 -0.00040355398270008891 0.0 0.0 -0.00025226557549729023 0.0 0.0 -6.5741146116238269e-05 0.0 0.0 0.00040355398270008891 0.0 0.0 0.00091121757524348368 0.0 0.0 0.0013062014532820854 0.0 0.0 0.0018186872324577052 0.0 0.0 0.0024596972543804441 0.0 0.0 0.0032294265111119103 0.0 0.0 0.0041106466643441308 0.0 0.0 0.0050595778518385259 0.0 0.0 0.0059933152306967941 0.0 0.0 0.006774812303817157 0.0 0.0 0.0072027926467086445 0.0 0.0 0.0060035011441783581 0.0 0.0 -0.0034518347620604573 0.0 0.0 -0.0025469777513649206 0.0 0.0 </DataArray>
<DataArray Name="radii" format="ascii" type="Float32">1.4 1.4 1.4 1.4 1.4 1.4 1.4 1.4 1.4 1.4 1.4 1.4 1.4 1.4 1.4 1.4 1.4 1.4 1.4 1.4 1.4 1.4 1.4 1.4 1.4 1.4 1.4 1.4 1.4 1.4 </DataArray>
</PointData>
<CellData/>
</Piece>
</UnstructuredGrid>
</VTKFile>
