<?xml version="1.0" ?>
<VTKFile byte_order="LittleEndian" type="UnstructuredGrid" version="0.1">
<UnstructuredGrid>
<Piece NumberOfCells="0" NumberOfPoints="120">
<Points>
<DataArray NumberOfComponents="3" format="ascii" type="Float32">1.5999999999999999 6.7658398336941703 2 6.0973927310736515 6.3953822155256352 2 10.231687292285539 1.52 2 12.042845117814869 1.44 2 12.102662534797016 5.0952660768721332 2 16.066131352583362 7.0437104253552061 2 19.198387716639548 6.5472538364090447 2 25.830986404326392 5.8549829819144827 2 29.355302464007064 7.2613361319337848 2 30.924476396388762 10.41191453256244 2 31.807451153311725 6.9597554721063526 2 33.356451597419216 5.7855902562313419 2 39.839887178435596 8.3122176606805809 2 42.268826769038071 6.0725643602718336 2 44.355459306351349 7.3080243768815185 2 48.908539615388399 7.0690807901261392 2 58.054040717370476 9.013043443695306 2 60.664158412080354 9.299451431148837 2 62.761573225823774 1.44 2 65.34165594780913 1.44 2 69.682095556131159 12.311873684845057 2 70.567696976179533 6.5942204181895194 2 74.332390357745254 5.9072138244179753 2 72.189438235277024 10.979599204358115 2 75.86040056143041 6.7438730005884553 2 76.717089718255522 2.5576743833065403 2 79.990466172205785 5.5835340059033909 2 83.965152385120462 4.6100990174416348 2 91.284553217889155 4.4529024457334687 2 96.44953930916104 6.1487533120476208 2 1.5999999999999999 1.5999999999999999 2 5.2722095923217518 1.5999999999999999 2 8.8275355975441467 6.3853263694951981 2 12.337048993899717 11.250493871644375 2 15.324419230809866 3.7318154018846839 2 15.35263704415541 10.812928636281404 2 19.20928910272012 1.5999999999999999 2 25.978350907364838 3.8856790191134811 2 25.552093252571275 11.823509373393579 2 33.233377308447082 11.999229625603951 2 29.522239437812434 1.5199999999999998 2 33.34165841288921 1.52 2 37.107419896719982 3.9308936417428009 2 40.723258134402599 3.3888553712876583 2 44.200748735304536 1.5999999999999999 2 47.665284325515586 4.2262906502194815 2 57.677316926253177 1.5999999999999999 2 61.512187552293604 5.1360026436818815 2 65.382071718206333 5.9849492538693392 2 67.217581968501904 6.8317720237235777 2 64.98671395961577 11.387890644977448 2 69.101053407157238 1.44 2 72.464329648224961 1.52 2 77.410064082406961 9.9397052731461866 2 75.761739969151279 1.52 2 78.240864947534249 4.7852889611435341 2 81.425291742452046 1.52 2 83.974726743885796 10.647768587237994 2 94.295914654136027 6.9098375479549272 2 96.77992977296762 3.5585809547273497 2 1.5999999999999999 9.6581356567199137 2 5.733794327820128 9.0124910842710104 2 9.2057832924026695 3.1857644267481988 2 12.76826065891931 3.3049869925507962 2 11.962000986885492 8.1264934245580989 2 17.377331117817707 5.6849993764400235 2 20.738526356499165 9.1354031241230089 2 23.899259276448216 4.461910019302695 2 27.613367816398647 5.8733519794392564 2 28.294451793443301 10.492936382114687 2 29.892835594228078 4.3405993298103587 2 33.301142859433071 8.8657306056943792 2 38.471339305513318 6.2881975982953984 2 42.344626706115946 8.6402688099943514 2 44.586361478087831 10.401858042924596 2 49.393272209561701 4.2540874928548815 2 59.104223731254947 11.756772471394257 2 62.947170154325192 8.959750250937871 2 65.140542226198988 4.5186480324809839 2 66.545367599187657 3.5790497463124886 2 67.809769156351251 10.372605016851979 2 70.077106072943835 9.2138110951873475 2 73.28327588849028 4.226018358384791 2 75.077443478609922 12.030502290644577 2 73.937360206612084 9.2563020837495635 2 79.0620832536693 1.44 2 81.304302498969307 9.8736149272379095 2 84.759642517057884 1.5999999999999999 2 92.420160037296966 1.5999999999999999 2 96.163814033777427 8.8647938310331664 2 1.5999999999999999 4.1147508279553318 2 5.3216857300809712 4.0827713464308379 2 10.61012317061266 5.5188794861603494 2 9.9876462601540172 9.7457378951502367 2 15.247373977814872 1.5999999999999999 2 14.020779160794012 7.2616118445060245 2 20.435648366835625 4.0727433403348314 2 26.555728945439633 1.5999999999999999 2 26.11159437721604 8.9712589223658874 2 35.502721220540657 10.396515853258149 2 31.682237238570369 1.44 2 33.278826672108487 3.6004881882786082 2 37.905489382967687 1.5999999999999999 2 42.32732927229452 1.52 2 43.83554542994775 3.7595860182842284 2 48.047324815518728 1.5999999999999999 2 55.834423641761823 3.7128034037541044 2 61.080232013130917 1.5999999999999999 2 63.274176385246456 4.6923569522552313 2 67.825949035614016 4.4430930713069055 2 66.193031962063571 8.837240802748795 2 69.104593210574649 3.984048093529303 2 70.704718504397349 1.44 2 78.512493493216795 12.338964880782932 2 74.693154260430688 3.8069410915866952 2 77.806366495844514 7.5484762299541455 2 80.508990302941484 3.8663362837874247 2 86.248102793423911 9.3883493140022836 2 92.944571709121277 3.6669904741882204 2 96.341963086860488 1.5999999999999999 2 </DataArray>
</Points>
<Cells>
<DataArray Name="connectivity" format="ascii" type="Int32">0</DataArray>
<DataArray Name="offsets" format="ascii" type="Int32">0</DataArray>
<DataArray Name="types" format="ascii" type="UInt8">1</DataArray>
</Cells>
<PointData>
<DataArray Name="Points" NumberOfComponents="3" format="ascii" type="Float32">1.5999999999999999 6.7658398336941703 2 6.0973927310736515 6.3953822155256352 2 10.231687292285539 1.52 2 12.042845117814869 1.44 2 12.102662534797016 5.0952660768721332 2 16.066131352583362 7.0437104253552061 2 19.198387716639548 6.5472538364090447 2 25.830986404326392 5.8549829819144827 2 29.355302464007064 7.2613361319337848 2 30.924476396388762 10.41191453256244 2 31.807451153311725 6.9597554721063526 2 33.356451597419216 5.7855902562313419 2 39.839887178435596 8.3122176606805809 2 42.268826769038071 6.0725643602718336 2 44.355459306351349 7.3080243768815185 2 48.908539615388399 7.0690807901261392 2 58.054040717370476 9.013043443695306 2 60.664158412080354 9.299451431148837 2 62.761573225823774 1.44 2 65.34165594780913 1.44 2 69.682095556131159 12.311873684845057 2 70.567696976179533 6.5942204181895194 2 74.332390357745254 5.9072138244179753 2 72.189438235277024 10.979599204358115 2 75.86040056143041 6.7438730005884553 2 76.717089718255522 2.5576743833065403 2 79.990466172205785 5.5835340059033909 2 83.965152385120462 4.6100990174416348 2 91.284553217889155 4.4529024457334687 2 96.44953930916104 6.1487533120476208 2 1.5999999999999999 1.5999999999999999 2 5.2722095923217518 1.5999999999999999 2 8.8275355975441467 6.3853263694951981 2 12.337048993899717 11.250493871644375 2 15.324419230809866 3.7318154018846839 2 15.35263704415541 10.812928636281404 2 19.20928910272012 1.5999999999999999 2 25.978350907364838 3.8856790191134811 2 25.552093252571275 11.823509373393579 2 33.233377308447082 11.999229625603951 2 29.522239437812434 1.5199999999999998 2 33.34165841288921 1.52 2 37.107419896719982 3.9308936417428009 2 40.723258134402599 3.3888553712876583 2 44.200748735304536 1.5999999999999999 2 47.665284325515586 4.2262906502194815 2 57.677316926253177 1.5999999999999999 2 61.512187552293604 5.1360026436818815 2 65.382071718206333 5.9849492538693392 2 67.217581968501904 6.8317720237235777 2 64.98671395961577 11.387890644977448 2 69.101053407157238 1.44 2 72.464329648224961 1.52 2 77.410064082406961 9.9397052731461866 2 75.761739969151279 1.52 2 78.240864947534249 4.7852889611435341 2 81.425291742452046 1.52 2 83.974726743885796 10.647768587237994 2 94.295914654136027 6.9098375479549272 2 96.77992977296762 3.5585809547273497 2 1.5999999999999999 9.6581356567199137 2 5.733794327820128 9.0124910842710104 2 9.2057832924026695 3.1857644267481988 2 12.76826065891931 3.3049869925507962 2 11.962000986885492 8.1264934245580989 2 17.377331117817707 5.6849993764400235 2 20.738526356499165 9.1354031241230089 2 23.899259276448216 4.461910019302695 2 27.613367816398647 5.8733519794392564 2 28.294451793443301 10.492936382114687 2 29.892835594228078 4.3405993298103587 2 33.301142859433071 8.8657306056943792 2 38.471339305513318 6.2881975982953984 2 42.344626706115946 8.6402688099943514 2 44.586361478087831 10.401858042924596 2 49.393272209561701 4.2540874928548815 2 59.104223731254947 11.756772471394257 2 62.947170154325192 8.959750250937871 2 65.140542226198988 4.5186480324809839 2 66.545367599187657 3.5790497463124886 2 67.809769156351251 10.372605016851979 2 70.077106072943835 9.2138110951873475 2 73.28327588849028 4.226018358384791 2 75.077443478609922 12.030502290644577 2 73.937360206612084 9.2563020837495635 2 79.0620832536693 1.44 2 81.304302498969307 9.8736149272379095 2 84.759642517057884 1.5999999999999999 2 92.420160037296966 1.5999999999999999 2 96.163814033777427 8.8647938310331664 2 1.5999999999999999 4.1147508279553318 2 5.3216857300809712 4.0827713464308379 2 10.61012317061266 5.5188794861603494 2 9.9876462601540172 9.7457378951502367 2 15.247373977814872 1.5999999999999999 2 14.020779160794012 7.2616118445060245 2 20.435648366835625 4.0727433403348314 2 26.555728945439633 1.5999999999999999 2 26.11159437721604 8.9712589223658874 2 35.502721220540657 10.396515853258149 2 31.682237238570369 1.44 2 33.278826672108487 3.6004881882786082 2 37.905489382967687 1.5999999999999999 2 42.32732927229452 1.52 2 43.83554542994775 3.7595860182842284 2 48.047324815518728 1.5999999999999999 2 55.834423641761823 3.7128034037541044 2 61.080232013130917 1.5999999999999999 2 63.274176385246456 4.6923569522552313 2 67.825949035614016 4.4430930713069055 2 66.193031962063571 8.837240802748795 2 69.104593210574649 3.984048093529303 2 70.704718504397349 1.44 2 78.512493493216795 12.338964880782932 2 74.693154260430688 3.8069410915866952 2 77.806366495844514 7.5484762299541455 2 80.508990302941484 3.8663362837874247 2 86.248102793423911 9.3883493140022836 2 92.944571709121277 3.6669904741882204 2 96.341963086860488 1.5999999999999999 2 </DataArray>
<DataArray Name="forces" NumberOfComponents="3" format="ascii" type="Float32">-1.0191781022235396 0.27728783952755542 0.0 0.056708090885924489 0.26184666922144784 0.0 -0.039903919040976898 -1.2886992105528856 0.0 0.0062180154093590678 -1.2326124940765331 0.0 0.038136808600214789 0.14886345716438545 0.0 0.062332248299326709 0.24695117394680158 0.0 0.00060738537617077704 0.39404290585877011 0.0 0.03027753550830925 0.15189592526812701 0.0 0.0023094233367503547 0.27276268734206616 0.0 0.016763701729386737 0.3501001139862126 0.0 0.012573455123202404 0.30081329554527514 0.0 0.026622175593222552 0.21106428838397262 0.0 -0.0043240117829432545 0.52536225301591366 0.0 0.056304812074993264 0.29282050873739413 0.0 0.046861944404508589 0.38667882736609571 0.0 -0.031793853795832994 0.31684694650977746 0.0 0.0057841005630362707 0.46099298967832447 0.0 -0.0042538773752915388 0.40317102508980424 0.0 -0.056719826519343652 -1.339803586710179 0.0 0.015567074322462238 -1.6116447121447259 0.0 -0.023353854748020375 0.47781838656085951 0.0 -0.0014988642781109118 0.35672365596561278 0.0 0.035598686750882125 0.27270620444410226 0.0 0.0061816984645530759 0.48849140635684757 0.0 0.092819989861456148 0.17659893196152854 0.0 -0.068342273727299549 0.081989787086226437 0.0 0.07177260203195257 0.11743785547283253 0.0 0.034468019295222418 0.31988571285176659 0.0 -0.012491514204487852 0.30485212127823791 0.0 0.00096843205557800571 0.26925758017310858 0.0 -1.3863993975828803 -0.76326954936443325 0.0 -0.11208735307218191 -0.9311216090242912 0.0 -0.039864500364381494 0.26165437132037911 0.0 0.1236570195562903 0.42610966308963538 0.0 0.014795781627334137 0.063211352588778635 0.0 0.069575514817123513 0.35010647481930918 0.0 -0.01180352178115826 -1.2295521589135043 0.0 -0.032298172713117815 0.12549849173571678 0.0 -0.00045535401613665261 0.46960767500252137 0.0 -0.015597387729445245 0.470631445708803 0.0 0.027402845454020608 -1.8201772828023755 0.0 -0.018380268292349768 -0.8411567145919715 0.0 0.070232837169686091 0.20832781578457352 0.0 0.0071325129364737672 0.01923178829985335 0.0 -0.009819672120880335 -1.2499634509435853 0.0 0.10245594993886985 0.15627606257362348 0.0 -0.031298395222174535 -0.97261081566248864 0.0 -0.072987700234741298 0.30405985817984749 0.0 0.044517840192972558 0.19111962820925965 0.0 -0.0018239163485289644 0.30949601238824553 0.0 -0.19446267433607733 0.28355760252115408 0.0 0.0084154015049555386 -1.667978364789692 0.0 -0.10469357641860028 -1.7275048138822049 0.0 -0.027697135791209318 0.40350725382475872 0.0 0.00010809112750242988 -1.2362211980142293 0.0 0.030214769006959297 0.11075350975841403 0.0 0.078140986337557838 -1.0165540150524264 0.0 -0.069081824281283066 0.78720927635605153 0.0 -0.0098475099206860317 0.33928202700425214 0.0 -0.074600383912738599 0.16954613485578374 0.0 -1.1163817899913415 0.34366897895311438 0.0 0.071310719715914211 0.35218377695861997 0.0 -0.021792596210871429 0.097492227976573254 0.0 -0.069203997314315813 -0.041890928132166882 0.0 -0.073531663944509162 0.4100935985981114 0.0 0.035381539727618816 0.14397710174549624 0.0 0.0223998505467526 0.36305684542583794 0.0 -0.039405340271621209 0.24280810197193869 0.0 0.03872800469683714 0.19226200594659953 0.0 -0.037758314498693636 0.39211831115062279 0.0 0.013907473617698493 0.15879989899050639 0.0 0.031420027997212302 0.37456311841629797 0.0 0.073267103505933628 0.34736421819230667 0.0 -0.018068313708418993 0.2975474247380262 0.0 -0.14758716288277779 0.53427502342146604 0.0 0.086752903897872144 0.18841141099057596 0.0 0.092828250413637833 0.51693085690383089 0.0 0.029452974656235364 0.42847706994604917 0.0 -0.087430008989023811 0.12781784797403395 0.0 -0.031979570579554362 0.2234122774387392 0.0 -0.10933744353706977 0.48414293320887297 0.0 -0.038260998598203533 0.4325771947016272 0.0 0.078554737720728518 0.18998848120391054 0.0 0.13406570044046107 0.28287642021499559 0.0 -0.095520764495212379 0.35916309822530279 0.0 0.066068177789375362 -0.98173591560063 0.0 -0.17618135426524975 0.49970659374027093 0.0 0.071420030743847729 -0.69142689464688745 0.0 -0.032352221336853448 -1.0850087893524345 0.0 -0.0027991216394292473 0.39218463495022937 0.0 -1.4258166715696252 0.18358725899431003 0.0 0.0048177931640462912 0.20994225573212916 0.0 -0.11035728605609479 0.2423046434362941 0.0 0.0063183594843006403 0.56273555952234111 0.0 0.068733311635489347 -1.2386168486654172 0.0 -0.081053691560137406 0.2231559177467034 0.0 -0.021238973126804256 0.20209921467488634 0.0 -0.035253233690896058 -0.9237965620101205 0.0 -0.050851722079830151 0.35029100513635208 0.0 0.010612049561199821 0.44569539259669777 0.0 -0.0555556664058178 -1.6007378751378474 0.0 0.049706604562264722 0.12091407386318982 0.0 -0.0026410629775857342 -1.0152919003728962 0.0 0.005148188545888846 -1.0497949533686493 0.0 0.017046217139119024 0.21345863041145741 0.0 -0.042345901050851772 -0.75122314958947101 0.0 -0.044385398592181061 0.18064528717119088 0.0 -0.015521392377362997 -1.0060336847999678 0.0 -0.03949677354508889 0.17419419084079735 0.0 -0.019361690758308875 0.10558397755916704 0.0 0.051695546448662741 0.27302956165730835 0.0 -0.051614060071377116 0.17306168629556845 0.0 0.0049115467604813889 -1.6138298495993568 0.0 0.20127552638699667 0.44330834534936486 0.0 0.043967415070728509 0.1124013307372963 0.0 0.047486315032796655 0.33185306569222006 0.0 0.10790776312174333 0.093433071506977966 0.0 -0.12865783081754434 0.25830544716881776 0.0 -0.10353093046900333 0.039321850661352076 0.0 -0.011676574171061826 -1.3227525930626416 0.0 </DataArray>
<DataArray Name="radii" format="ascii" type="Float32">1.5999999999999999 1.5999999999999999 1.52 1.44 1.3600000000000003 1.52 1.5999999999999999 1.44 1.4400000000000002 1.5999999999999999 1.3600000000000003 1.5199999999999998 1.5999999999999999 1.3600000000000003 1.5199999999999998 1.5999999999999999 1.5999999999999999 1.5999999999999999 1.44 1.44 1.5999999999999999 1.52 1.3600000000000003 1.5999999999999999 1.3600000000000003 1.3600000000000003 1.44 1.5999999999999999 1.5999999999999999 1.5999999999999999 1.5999999999999999 1.5999999999999999 1.52 1.5999999999999999 1.44 1.5999999999999999 1.5999999999999999 1.3600000000000003 1.5999999999999999 1.5999999999999999 1.5199999999999998 1.52 1.5999999999999999 1.44 1.5999999999999999 1.5999999999999999 1.5999999999999999 1.52 1.3600000000000003 1.3600000000000003 1.5999999999999999 1.44 1.52 1.52 1.52 1.3600000000000003 1.52 1.5999999999999999 1.5999999999999999 1.5999999999999999 1.5999999999999999 1.5999999999999999 1.44 1.3600000000000003 1.44 1.44 1.5999999999999999 1.52 1.3600000000000003 1.5999999999999999 1.4400000000000002 1.52 1.5999999999999999 1.5999999999999999 1.5999999999999999 1.5999999999999999 1.5999999999999999 1.5999999999999999 1.3600000000000003 1.3600000000000003 1.52 1.52 1.44 1.5999999999999999 1.52 1.44 1.5999999999999999 1.5999999999999999 1.5999999999999999 1.5999999999999999 1.5999999999999999 1.5999999999999999 1.3600000000000003 1.5999999999999999 1.5999999999999999 1.3600000000000003 1.5999999999999999 1.5999999999999999 1.52 1.5999999999999999 1.44 1.3600000000000003 1.5999999999999999 1.52 1.44 1.5999999999999999 1.5999999999999999 1.5999999999999999 1.3600000000000003 1.3600000000000003 1.4400000000000002 1.3600000000000003 1.44 1.5999999999999999 1.3600000000000003 1.3600000000000003 1.44 1.5999999999999999 1.52 1.5999999999999999 </DataArray>
</PointData>
<CellData/>
</Piece>
</UnstructuredGrid>
</VTKFile>
