<?xml version="1.0" ?>
<VTKFile byte_order="LittleEndian" type="UnstructuredGrid" version="0.1">
<UnstructuredGrid>
<Piece NumberOfCells="0" NumberOfPoints="199">
<Points>
<DataArray NumberOfComponents="3" format="ascii" type="Float32">6.1236910771863604 2.8533206432459113 2 18.81570028651705 12.050728116218567 2 20.83403875150282 1.4 2 23.698776253180771 1.2 2 40.47043714584499 15.596964260538392 2 45.832979442057592 6.658463209859776 2 51.30346449156508 2.6340991226179091 2 54.226989938780861 10.476066326657463 2 57.100425393460092 7.5147375478357317 2 58.793461496919484 9.1486852434702701 2 84.572780229565382 5.1910185866837608 2 86.657510979507776 10.547620325729046 2 90.607926459850177 9.034521834011656 2 91.348367985761726 13.329638285186963 2 92.832224351725344 14.133654000587134 2 99.0 2.0034243953626669 2 22.333414184649797 13.824534228762454 2 23.623496830492904 9.2983093490076367 2 37.956661648301889 1.4 2 46.349001926306677 7.5481888336560923 2 47.430960029635507 14.014965535741425 2 52.212699404810664 4.1135871302808136 2 53.67902387441945 2.8249928370421764 2 54.336050597935127 17.011603460802569 2 83.550219713887174 8.3684199231139207 2 87.170453271000838 5.360911739509775 2 90.547865568617979 1.5999999999999999 2 94.390085098414559 5.1221176660754377 2 99.0 8.8365126777861995 2 3.5184858550177562 14.358271949285829 2 18.950724568691324 15.287053527195482 2 38.526797906086919 13.349126922349312 2 47.232283028481461 1 2 52.34472475570194 5.8065430235302866 2 51.364787011680647 11.536251878882021 2 52.273353938892285 10.206678753663205 2 55.52596143501394 7.1282193276335262 2 57.066591535048197 6.3253963680440357 2 85.703130312908712 9.7612709081913955 2 89.883498506022804 14.578805601620093 2 91.771361041201772 10.217448271435421 2 94.104158174595028 15.347006423741014 2 99.0 6.6393583971243597 2 6.5881200537545475 15.734797510095968 2 22.458022302409027 17.071312401909367 2 36.209511447350224 5.9652252391641563 2 39.357083554005165 6.3969753780802803 2 47.02328001226882 12.39525250430748 2 51.440899003578203 15.225332036730956 2 53.09709922918411 4.2644950738153282 2 54.414325498326484 1.4 2 52.501501896988039 12.492222527877594 2 58.068659004402392 5.3825613626196169 2 84.08887245742774 12.66664463822617 2 86.447845034790561 1.5999999999999999 2 89.241810125549648 3.7437660452375301 2 89.532016647644738 4.6433468128507576 2 98.994043228211311 13.713403694560203 2 19.950434091667915 11.320036565229374 2 22.756743451396101 1.4 2 37.449927206334678 10.914467082982586 2 43.150981866887733 16.347639881522689 2 50.784424549270895 1 2 51.334989116514542 8.2892708194888129 2 55.663310737775383 11.546540413120482 2 55.732943122732792 10.06869147964025 2 58.296368944439479 7.7709658553480416 2 83.310435548578567 6.9695878151960136 2 89.21645682647025 9.0213258673598542 2 90.53439825090696 10.480244574494211 2 91.459876389986903 15.269832759604837 2 93.384870236074875 11.158842367247274 2 98.817311929797341 2.8274214682351335 2 7.2418348564867694 13.634879421143875 2 18.740901063911565 3.2492841115464777 2 23.93990409288309 14.194270719657451 2 22.870676184726374 10.92768710968226 2 35.356277837035812 3.0790769686214938 2 39.866144899538256 2.6159187911992712 2 47.476613124924789 10.069027898313383 2 49.604881237046214 13.757770107668001 2 51.726498578486996 1 2 53.515736118345345 1 2 56.06002407024819 14.947962679321073 2 57.799116077655206 2.6983039129719355 2 82.541473687055941 10.195766518972965 2 86.191300246020873 6.6688693250092728 2 87.771128188677707 3.6384060881899098 2 99.0 10.199592886367725 2 3.9125467653714159 10.55366210860385 2 5.7205409041624407 4.2561508000064325 2 17.432801490498658 17.077048618574938 2 22.227898151268448 8.4298368783322637 2 21.699898746397142 1.4 2 36.834628248443181 9.0536768312406934 2 38.798504428521589 16.569353099612748 2 51.045081568007824 10.099764240736887 2 52.972376139623677 7.4138979529253435 2 54.22206498834251 8.647740966217734 2 57.701426627246313 4.2267567817408285 2 87.680319419968143 7.4497100488938024 2 87.968173358419165 11.721174615242642 2 91.825536564525407 8.6050078340633984 2 98.204410496187776 15.416610360439508 2 99.0 4.7002338049104937 2 2.441852463203515 7.0013541042591783 2 8.2520548182265951 16.112483625069778 2 17.662608414910032 1.4 2 20.026670703000963 16.700883620990943 2 22.104682050995365 9.8969483575992658 2 45.768967586992588 13.337394049035517 2 50.184220413644411 16.335418087280701 2 54.287919335603149 5.7350554400581286 2 55.064176683666375 13.703213215345581 2 84.150393486999121 9.7830737243615076 2 87.439183597352482 1 2 89.41871331005062 1 2 88.85128657131844 7.2657276153964947 2 96.965064291684399 13.727150187783353 2 18.021555006873523 13.188380594967377 2 41.727518576266682 14.539010553577793 2 54.466158251553523 12.030136826461396 2 55.660110129696285 8.0933418853282753 2 87.893880700608875 10.256880172590904 2 89.843983487908616 7.8656244931861181 2 90.626720764296479 11.979542890422243 2 93.64459950931743 12.766498707100544 2 99.0 1 2 21.077343072755244 13.595417055153872 2 48.747675689707528 15.12913781377625 2 51.099040130894643 3.8187869350833856 2 54.21894425419034 15.207418446757996 2 84.595224707969166 8.234401259759796 2 88.691848764165442 5.2649082485979495 2 99.0 7.6333692464402016 2 3.5954913557828245 16.08222188705199 2 17.765620476116368 14.511727505072226 2 38.329753299632287 12.053462659473952 2 50.107627866734511 12.07721645482736 2 53.260267185682729 9.3604835946103773 2 53.904307245144942 7.6180219184716833 2 87.030923783025159 9.048502662300578 2 89.154715361643738 13.156991287910207 2 92.125372549337285 11.69287607677022 2 94.647891443740235 17.092292414981333 2 99.0 5.649299899163216 2 5.1363886213286598 14.914156930246731 2 22.585232359249581 15.362221490605256 2 48.571687916723747 12.589066202562917 2 52.718820959335858 14.344663490111836 2 53.259187754451915 5.6201086513635206 2 53.133869883463476 11.245234132137885 2 85.160057590923358 12.234073955014585 2 88.889829904744133 2.7959648891740931 2 88.784389385706703 6.1769654377433154 2 99.0 11.858401704519949 2 36.780884794851076 12.019662515432248 2 43.305957418504846 14.663490171834285 2 50.214024783448501 2.1997888453952901 2 52.067791555222108 6.9951165476458375 2 56.166891071764226 12.924234552024418 2 56.634990344923558 8.5883506269560712 2 58.357124716231894 6.6746598673749542 2 89.193050375038851 10.254684973518845 2 89.247068671729167 11.654363400691684 2 92.708449732899979 16.632988041522175 2 92.907785941042121 9.6418041832910593 2 24.725478294427219 15.425514688178108 2 23.899890801061783 11.745355678572947 2 51.188002965285442 13.410989542786979 2 52.495376762508904 2.4936707909275304 2 52.573926253295745 1 2 56.202417701401806 16.746948684671601 2 82.92855801783135 9.1987230498608223 2 86.470841231225734 7.9558533965907188 2 87.726657676225415 4.5275951391431919 2 97.763457217822975 12.305497775520253 2 16.058919843894113 15.903454707057268 2 36.525011347305423 10.115258242064565 2 38.967024705478131 14.763112447639127 2 50.430224020679368 8.8336580357282557 2 52.309999234379667 8.6774033987183294 2 55.111551827702918 9.2608742341089165 2 87.337004637198348 6.3711125435553644 2 87.201577976506769 12.880331988028066 2 91.067145216075858 7.4208586972479136 2 97.480708264186219 17.230355514264375 2 99.0 3.7407416662909445 2 8.3832926944018613 17.935332002258711 2 20.726199049329658 15.046407041346876 2 45.0768815664388 14.91366978042687 2 48.342535499244953 16.894438943074505 2 54.484368021385912 6.7114835359579113 2 53.72754464622583 13.270632711776184 2 84.903032649244665 10.845151162264987 2 88.481301340076371 1 2 88.303979007058075 2.2135916479044022 2 88.147516560256179 8.6603972253557586 2 96.249995165919756 15.441346499487425 2 </DataArray>
</Points>
<Cells>
<DataArray Name="connectivity" format="ascii" type="Int32">0</DataArray>
<DataArray Name="offsets" format="ascii" type="Int32">0</DataArray>
<DataArray Name="types" format="ascii" type="UInt8">1</DataArray>
</Cells>
<PointData>
<DataArray Name="Points" NumberOfComponents="3" format="ascii" type="Float32">6.1236910771863604 2.8533206432459113 2 18.81570028651705 12.050728116218567 2 20.83403875150282 1.4 2 23.698776253180771 1.2 2 40.47043714584499 15.596964260538392 2 45.832979442057592 6.658463209859776 2 51.30346449156508 2.6340991226179091 2 54.226989938780861 10.476066326657463 2 57.100425393460092 7.5147375478357317 2 58.793461496919484 9.1486852434702701 2 84.572780229565382 5.1910185866837608 2 86.657510979507776 10.547620325729046 2 90.607926459850177 9.034521834011656 2 91.348367985761726 13.329638285186963 2 92.832224351725344 14.133654000587134 2 99.0 2.0034243953626669 2 22.333414184649797 13.824534228762454 2 23.623496830492904 9.2983093490076367 2 37.956661648301889 1.4 2 46.349001926306677 7.5481888336560923 2 47.430960029635507 14.014965535741425 2 52.212699404810664 4.1135871302808136 2 53.67902387441945 2.8249928370421764 2 54.336050597935127 17.011603460802569 2 83.550219713887174 8.3684199231139207 2 87.170453271000838 5.360911739509775 2 90.547865568617979 1.5999999999999999 2 94.390085098414559 5.1221176660754377 2 99.0 8.8365126777861995 2 3.5184858550177562 14.358271949285829 2 18.950724568691324 15.287053527195482 2 38.526797906086919 13.349126922349312 2 47.232283028481461 1 2 52.34472475570194 5.8065430235302866 2 51.364787011680647 11.536251878882021 2 52.273353938892285 10.206678753663205 2 55.52596143501394 7.1282193276335262 2 57.066591535048197 6.3253963680440357 2 85.703130312908712 9.7612709081913955 2 89.883498506022804 14.578805601620093 2 91.771361041201772 10.217448271435421 2 94.104158174595028 15.347006423741014 2 99.0 6.6393583971243597 2 6.5881200537545475 15.734797510095968 2 22.458022302409027 17.071312401909367 2 36.209511447350224 5.9652252391641563 2 39.357083554005165 6.3969753780802803 2 47.02328001226882 12.39525250430748 2 51.440899003578203 15.225332036730956 2 53.09709922918411 4.2644950738153282 2 54.414325498326484 1.4 2 52.501501896988039 12.492222527877594 2 58.068659004402392 5.3825613626196169 2 84.08887245742774 12.66664463822617 2 86.447845034790561 1.5999999999999999 2 89.241810125549648 3.7437660452375301 2 89.532016647644738 4.6433468128507576 2 98.994043228211311 13.713403694560203 2 19.950434091667915 11.320036565229374 2 22.756743451396101 1.4 2 37.449927206334678 10.914467082982586 2 43.150981866887733 16.347639881522689 2 50.784424549270895 1 2 51.334989116514542 8.2892708194888129 2 55.663310737775383 11.546540413120482 2 55.732943122732792 10.06869147964025 2 58.296368944439479 7.7709658553480416 2 83.310435548578567 6.9695878151960136 2 89.21645682647025 9.0213258673598542 2 90.53439825090696 10.480244574494211 2 91.459876389986903 15.269832759604837 2 93.384870236074875 11.158842367247274 2 98.817311929797341 2.8274214682351335 2 7.2418348564867694 13.634879421143875 2 18.740901063911565 3.2492841115464777 2 23.93990409288309 14.194270719657451 2 22.870676184726374 10.92768710968226 2 35.356277837035812 3.0790769686214938 2 39.866144899538256 2.6159187911992712 2 47.476613124924789 10.069027898313383 2 49.604881237046214 13.757770107668001 2 51.726498578486996 1 2 53.515736118345345 1 2 56.06002407024819 14.947962679321073 2 57.799116077655206 2.6983039129719355 2 82.541473687055941 10.195766518972965 2 86.191300246020873 6.6688693250092728 2 87.771128188677707 3.6384060881899098 2 99.0 10.199592886367725 2 3.9125467653714159 10.55366210860385 2 5.7205409041624407 4.2561508000064325 2 17.432801490498658 17.077048618574938 2 22.227898151268448 8.4298368783322637 2 21.699898746397142 1.4 2 36.834628248443181 9.0536768312406934 2 38.798504428521589 16.569353099612748 2 51.045081568007824 10.099764240736887 2 52.972376139623677 7.4138979529253435 2 54.22206498834251 8.647740966217734 2 57.701426627246313 4.2267567817408285 2 87.680319419968143 7.4497100488938024 2 87.968173358419165 11.721174615242642 2 91.825536564525407 8.6050078340633984 2 98.204410496187776 15.416610360439508 2 99.0 4.7002338049104937 2 2.441852463203515 7.0013541042591783 2 8.2520548182265951 16.112483625069778 2 17.662608414910032 1.4 2 20.026670703000963 16.700883620990943 2 22.104682050995365 9.8969483575992658 2 45.768967586992588 13.337394049035517 2 50.184220413644411 16.335418087280701 2 54.287919335603149 5.7350554400581286 2 55.064176683666375 13.703213215345581 2 84.150393486999121 9.7830737243615076 2 87.439183597352482 1 2 89.41871331005062 1 2 88.85128657131844 7.2657276153964947 2 96.965064291684399 13.727150187783353 2 18.021555006873523 13.188380594967377 2 41.727518576266682 14.539010553577793 2 54.466158251553523 12.030136826461396 2 55.660110129696285 8.0933418853282753 2 87.893880700608875 10.256880172590904 2 89.843983487908616 7.8656244931861181 2 90.626720764296479 11.979542890422243 2 93.64459950931743 12.766498707100544 2 99.0 1 2 21.077343072755244 13.595417055153872 2 48.747675689707528 15.12913781377625 2 51.099040130894643 3.8187869350833856 2 54.21894425419034 15.207418446757996 2 84.595224707969166 8.234401259759796 2 88.691848764165442 5.2649082485979495 2 99.0 7.6333692464402016 2 3.5954913557828245 16.08222188705199 2 17.765620476116368 14.511727505072226 2 38.329753299632287 12.053462659473952 2 50.107627866734511 12.07721645482736 2 53.260267185682729 9.3604835946103773 2 53.904307245144942 7.6180219184716833 2 87.030923783025159 9.048502662300578 2 89.154715361643738 13.156991287910207 2 92.125372549337285 11.69287607677022 2 94.647891443740235 17.092292414981333 2 99.0 5.649299899163216 2 5.1363886213286598 14.914156930246731 2 22.585232359249581 15.362221490605256 2 48.571687916723747 12.589066202562917 2 52.718820959335858 14.344663490111836 2 53.259187754451915 5.6201086513635206 2 53.133869883463476 11.245234132137885 2 85.160057590923358 12.234073955014585 2 88.889829904744133 2.7959648891740931 2 88.784389385706703 6.1769654377433154 2 99.0 11.858401704519949 2 36.780884794851076 12.019662515432248 2 43.305957418504846 14.663490171834285 2 50.214024783448501 2.1997888453952901 2 52.067791555222108 6.9951165476458375 2 56.166891071764226 12.924234552024418 2 56.634990344923558 8.5883506269560712 2 58.357124716231894 6.6746598673749542 2 89.193050375038851 10.254684973518845 2 89.247068671729167 11.654363400691684 2 92.708449732899979 16.632988041522175 2 92.907785941042121 9.6418041832910593 2 24.725478294427219 15.425514688178108 2 23.899890801061783 11.745355678572947 2 51.188002965285442 13.410989542786979 2 52.495376762508904 2.4936707909275304 2 52.573926253295745 1 2 56.202417701401806 16.746948684671601 2 82.92855801783135 9.1987230498608223 2 86.470841231225734 7.9558533965907188 2 87.726657676225415 4.5275951391431919 2 97.763457217822975 12.305497775520253 2 16.058919843894113 15.903454707057268 2 36.525011347305423 10.115258242064565 2 38.967024705478131 14.763112447639127 2 50.430224020679368 8.8336580357282557 2 52.309999234379667 8.6774033987183294 2 55.111551827702918 9.2608742341089165 2 87.337004637198348 6.3711125435553644 2 87.201577976506769 12.880331988028066 2 91.067145216075858 7.4208586972479136 2 97.480708264186219 17.230355514264375 2 99.0 3.7407416662909445 2 8.3832926944018613 17.935332002258711 2 20.726199049329658 15.046407041346876 2 45.0768815664388 14.91366978042687 2 48.342535499244953 16.894438943074505 2 54.484368021385912 6.7114835359579113 2 53.72754464622583 13.270632711776184 2 84.903032649244665 10.845151162264987 2 88.481301340076371 1 2 88.303979007058075 2.2135916479044022 2 88.147516560256179 8.6603972253557586 2 96.249995165919756 15.441346499487425 2 </DataArray>
<DataArray Name="forces" NumberOfComponents="3" format="ascii" type="Float32">-0.048364142289072709 0.35315181522554973 0.0 0.080019669726670073 0.43800539567885627 0.0 -0.026928445362033232 -1.3715389677922103 0.0 -0.067972431146610557 -1.3939892331376222 0.0 0.031549561925808794 0.339279608843706 0.0 -0.010281449916008989 0.12364393843204263 0.0 0.087454541486637477 0.14644589391311438 0.0 -0.035213455823596695 0.15844633268453623 0.0 -0.083131455689970407 0.1260802108624178 0.0 -0.047507025961466734 0.21191005989558745 0.0 0.20363536701347504 0.17325756097029005 0.0 0.012830486316080914 0.17962170899763052 0.0 0.073363568613278599 0.17624947866876334 0.0 -0.075304773492196289 0.33790159225833793 0.0 0.063769315115011216 0.20077543961944386 0.0 1.0049103755511535 -0.023876601102986117 0.0 -0.031812062608906899 0.30681780061584429 0.0 0.046294161608007062 0.17173142457659468 0.0 0.091777743853198146 -1.5089308440681592 0.0 0.091054409488563109 0.163625113093811 0.0 0.012780944844240028 0.21530291938468718 0.0 0.043698047912634569 0.10679543994260185 0.0 0.023513339501658626 -0.04269265514331394 0.0 -0.10220987044300536 0.20872634824617781 0.0 0.039312219187946473 0.22671337247934553 0.0 0.080192982914000954 0.065693096085118086 0.0 0.030296899847134351 -1.3321007392363224 0.0 0.041439747752937184 0.11020270343533302 0.0 0.72030755154667592 0.23109446749609064 0.0 -0.039745255550375697 0.27443545059546531 0.0 0.084333449179295111 0.37486365405420785 0.0 -0.028035581735404463 0.20351641006883892 0.0 0.12944915040920718 -1.9975681418942484 0.0 0.040079455424360949 0.15335268341071406 0.0 -0.030229468216793481 0.20601908272660738 0.0 -0.0023159356657359714 0.16606633309696756 0.0 -0.063047701610448093 0.14153347540344396 0.0 -0.10683691266212514 0.13888009375827787 0.0 0.055474783001442263 0.19085736535516606 0.0 -0.1291861727523094 0.29317230213062651 0.0 0.075373258705096258 0.27124663021178713 0.0 -0.0053992698027956754 0.21169705057723065 0.0 0.65724942948311804 0.12786646340659036 0.0 -0.1136788634431638 0.47450502269717121 0.0 -0.020208880133357272 0.28382847078507223 0.0 0.052415184970000667 0.14182681396082841 0.0 0.011961814708175589 0.10497043454754845 0.0 0.060585355446492795 0.21446840793555499 0.0 -0.10271035025560038 0.20795757495420364 0.0 -0.0078965085917298422 0.016840736370449777 0.0 -0.066339475205077436 -0.63884723615253225 0.0 -0.03430742359116884 0.21331615582303937 0.0 -0.13810618446314399 0.11882224911428418 0.0 0.11979815626667793 0.23877185831431513 0.0 0.0067919824898042824 -1.3065106291284869 0.0 0.0091566619124350684 0.04572962403248218 0.0 -0.010497741923590542 0.048699088403167619 0.0 0.13475451932993848 0.13260261174035926 0.0 -0.019997478215498955 0.32157570413291103 0.0 -0.068561300193833344 -1.7769522640694388 0.0 0.056240267103530472 0.18327760652679792 0.0 -0.073189371940954484 0.30030012505759057 0.0 -0.10082748687552923 -1.2677252754467574 0.0 0.016135801110190751 0.1779901230657045 0.0 -0.063292145593239146 0.19007534814461852 0.0 -0.11577663424022622 0.17170037682050432 0.0 -0.12625307936816099 0.15019896856053361 0.0 0.065874208648611154 0.33052541643374866 0.0 0.062781221831093137 0.15487689193102155 0.0 0.066014866718729137 0.1615013049641259 0.0 -0.012002387479177257 0.18959951190293389 0.0 -0.062283221566579283 0.047062772945287566 0.0 0.24480099348274786 0.03057231356905743 0.0 -0.0028711714209715966 0.54714235699342806 0.0 0.039767261965648962 0.066474579126289957 0.0 -0.055960133864031758 0.2681299138518824 0.0 -0.01450253813890956 0.20531940408962096 0.0 0.024261635079541044 0.044948840546162189 0.0 0.19032190572377833 -0.02527753817020062 0.0 -0.0028006705485339456 0.29722951853739688 0.0 0.052586079806389241 0.32099945255085921 0.0 -0.075618411154659837 -1.0192920439875799 0.0 -0.10943170154215465 -1.2952406425677869 0.0 -0.065323413545797862 0.28160045337765638 0.0 -0.08947036225776861 -0.056261803395878829 0.0 0.14017801403154689 0.23000508392103242 0.0 0.082834426018246976 0.13774509358453041 0.0 0.11002334774345943 0.059831577134517089 0.0 0.87853896242881502 0.15021568684215558 0.0 -0.074339898714768093 0.20290842809759846 0.0 -0.11712679996450384 0.14485747465710175 0.0 0.15195709920189612 0.13431447096531438 0.0 -0.037982994322795949 0.26896439530044147 0.0 -0.055485424999104541 -2.0074552744741188 0.0 0.046588878955221714 0.22723551530146519 0.0 0.074507619005302492 0.33115904944850094 0.0 0.048657884797336057 0.17463123880878692 0.0 -0.055328385081121811 0.1812506521242469 0.0 -0.013725997486574628 0.087986454271369266 0.0 -0.080889914242379568 0.099707766403311207 0.0 0.019945304466859159 0.16518484490674179 0.0 0.020576799748062091 0.17742682951697308 0.0 -0.062395395065023229 0.16216587350434364 0.0 0.014186476557176378 0.067830949994937786 0.0 0.82901904388633818 0.065051676250295731 0.0 -0.019666332419294497 0.20193249298909771 0.0 0.0093923341328718442 0.15528318191428134 0.0 -5.3016902067826166e-05 -1.4101237419193695 0.0 0.052982290963716983 0.36880223298085529 0.0 -0.025078142265232639 0.23615225692569342 0.0 0.052592667651675404 0.26795153842006064 0.0 -0.075788677721398523 0.27133044707929133 0.0 -0.023024402695307589 0.097947372236221769 0.0 -0.0091701027686201808 0.21138389742804822 0.0 0.12946920960854674 0.14266316585224392 0.0 0.014044698692216417 -1.2487027336372289 0.0 0.008651200682795207 -1.1339173901770503 0.0 0.020363417278120743 0.15176687815181283 0.0 0.027421080083758376 0.24766232527731372 0.0 -0.018417336739907642 0.35208392980866726 0.0 -0.001517843391510787 0.2757508761274734 0.0 -0.060965909890888792 0.19395583334206762 0.0 -0.060585066765305035 0.13128795321871561 0.0 0.044480416130972603 0.1903680509797355 0.0 0.047672955546725584 0.161854941070045 0.0 0.0019269247979237791 0.23644580553612776 0.0 0.0048035190302496977 0.13291062711525226 0.0 1.0858158417126069 -1.2548349800296514 0.0 -0.032174322830859858 0.1887915523372814 0.0 -0.045064500897273749 0.23759102907536395 0.0 0.0038999501582667184 0.13327626499260725 0.0 -0.053798255260638021 0.2034250465881261 0.0 0.10737336359672181 0.090796253696666968 0.0 0.051336662820472834 0.1489336708104102 0.0 0.69864557204292899 0.191539503639443 0.0 -0.038821004146254522 0.31677188662857086 0.0 -0.043124726991539949 0.44423733180713226 0.0 -0.009142445563587176 0.088825316329811513 0.0 -0.051343640027063375 0.29849218523450682 0.0 0.034314797837939587 0.17561849123285239 0.0 -0.05753872950072203 0.07534992712237909 0.0 0.085978182314268681 0.20734463225992561 0.0 -0.019849785587354785 0.18674152843665345 0.0 -0.042215479665114977 0.37948833107796265 0.0 0.059674419628345778 0.16445124529039079 0.0 0.68404539109813423 0.093754464608791221 0.0 -0.062042587145794442 0.32432214136850196 0.0 0.038169633067265216 0.30587297939854857 0.0 0.025016387973738174 0.28749423983494554 0.0 -0.031375125825019112 0.23670087645251467 0.0 -0.010730636367166091 0.061681702387156312 0.0 -0.04975128192100238 0.19508070561418453 0.0 0.10723782899445131 0.24195046937342368 0.0 0.10333875061644771 -0.039429741219096925 0.0 0.010430886411307294 0.15605940773319943 0.0 0.80899140460713204 0.14472163726684795 0.0 -0.05834420287316075 0.23074458633830569 0.0 0.0141381194528436 0.25696641107360735 0.0 0.15705701174156356 0.1097197971865996 0.0 0.028694805089146229 0.10626999501120421 0.0 -0.051148625258239773 0.1713308996485412 0.0 -0.060087689657594257 0.13426443661733312 0.0 -0.11122785708973904 0.12801665632192033 0.0 0.040040917264223264 0.15507821580868181 0.0 0.053720805190603113 0.14615673993152256 0.0 0.020846391208466479 0.17696791255563368 0.0 0.0026783111050345809 0.050699822195736266 0.0 0.00017708078886642664 0.24620969705849202 0.0 0.0027066136843102787 0.21619121235114408 0.0 0.012451877101819553 0.21181675586657808 0.0 -0.014738086495454033 0.061148004940301703 0.0 -0.11232752973250638 -1.1029775621086029 0.0 -0.07148349490201375 0.31399116008293804 0.0 0.09603261260273746 0.25392194602105866 0.0 0.075175548508786438 0.20356847026863822 0.0 0.068932746266094247 0.084999905011904145 0.0 -0.0071475222932363414 0.23591842695502635 0.0 -0.14459801966095093 0.31494657024510053 0.0 -0.074236656702044351 0.19796098897643213 0.0 -0.062382912100579543 0.31420752716254852 0.0 0.029742877643748888 0.1926771475123473 0.0 0.015395950699265915 0.17050219290988974 0.0 -0.012778339535751748 0.11089097417544826 0.0 0.026869885866621715 0.11506720803277727 0.0 0.049341099658891413 0.25518205839210328 0.0 0.021587593173557351 0.058197729965685119 0.0 -0.017018514273537743 0.042876171999219018 0.0 1.0214607101310491 0.050033603343090233 0.0 0.012489925435173747 0.17369689231979965 0.0 0.1135392715537912 0.32808204675753577 0.0 0.024999088352625903 0.29875599260235886 0.0 -0.11481187479397387 0.20537783550017832 0.0 -0.052631182084925399 0.095321720405847049 0.0 -0.02880225967604938 0.19993883752049363 0.0 0.019632242713648718 0.24275823247078226 0.0 -0.0030951159788353694 -1.1820767121433873 0.0 -0.020969784503967262 0.047411533649740156 0.0 0.06193114880031593 0.16751782818512365 0.0 -0.0088129569393167184 0.2481960178648677 0.0 </DataArray>
<DataArray Name="radii" format="ascii" type="Float32">1 1 1.4 1.2 1 1.2 1.4 1 1 1.5999999999999999 1.2 1 1 1 1 1 1 1 1.4 1.4 1 1 1.4 1 1 1 1.5999999999999999 1.4 1 1 1 1 1 1.2 1 1 1 1 1 1 1 1 1 1 1 1.4 1.4 1 1 1 1.4 1 1.4 1 1.5999999999999999 1 1 1 1.4 1.4 1 1 1 1 1 1 1 1.4 1 1 1 1 1 1.5999999999999999 1.4 1 1 1.2 1.4 1.4 1 1 1 1 1.2 1 1 1 1 1.4 1.4 1 1.4 1.4 1 1 1 1 1 1.4 1 1 1 1 1 1.2 1 1.4 1 1.4 1 1 1 1 1 1 1 1 1 1 1 1 1 1 1 1 1 1 1 1 1 1 1 1 1 1 1 1 1 1 1 1 1 1 1 1 1 1 1 1 1 1 1 1 1 1 1 1 1 1 1 1 1 1 1 1 1 1 1 1 1 1 1 1 1 1 1 1 1 1 1 1 1 1 1 1 1 1 1 1 1 1 1 1 1 1 1 1 1 </DataArray>
</PointData>
<CellData/>
</Piece>
</UnstructuredGrid>
</VTKFile>
