<?xml version="1.0" ?>
<VTKFile byte_order="LittleEndian" type="UnstructuredGrid" version="0.1">
<UnstructuredGrid>
<Piece NumberOfCells="0" NumberOfPoints="2309">
<Points>
<DataArray NumberOfComponents="3" format="ascii" type="Float32">24.509826808973592 0.7 2 64.113235009753637 13.688811215811221 2 66.748075607415714 0.7 2 72.604340924529353 10.115334474824532 2 71.859071418534853 8.0489242556922971 2 74.434601624593398 0.7 2 14.679254550023467 7.0566303345154182 2 31.655349159832792 11.48550910682909 2 72.542641645562242 8.8274479411603881 2 67.384369624342725 8.4029597514740431 2 27.722236579717407 3.7777341285381962 2 71.524213490551276 5.2501921084918983 2 70.902382520710816 6.9234138486500978 2 77.09023136459399 5.1245128349196492 2 81.186644485677704 11.370167547361186 2 10.7361451643826 9.5109486372991174 2 27.214399310812059 10.862269507106326 2 30.813067868474921 9.8363934083419977 2 40.953131414672036 7.1692730566677314 2 72.222531505534505 9.2601959863941214 2 72.757088232199862 9.5935022194021506 2 77.418556099761901 7.1047402824433386 2 78.068919503737547 0.7 2 29.089190992954784 3.5398754901037677 2 61.084887061529002 4.8546769960493652 2 63.867787558058659 10.317391084222859 2 69.243338700997199 8.151327586723907 2 75.665607843847255 12.364083707934824 2 77.845000696225455 7.2205278102811459 2 10.365880175598754 4.5792723966666662 2 13.522939603225689 11.605457797862982 2 27.68580625524422 10.234018707365337 2 30.585729920613506 6.5229218060881191 2 35.536383098618614 9.0800089253214971 2 63.096859848918932 3.9426005825274641 2 66.419502494654495 0.7 2 68.598105099653523 9.3248871062444252 2 75.282499909081437 12.069815533453824 2 9.906159709543072 9.784617557191881 2 15.544618791012725 12.156364917470777 2 23.243291312155897 11.096763626006529 2 30.44335546510295 2.5758338962086196 2 61.465546294369965 10.649349454397841 2 67.377428450798035 3.3482322610209514 2 63.188541875430239 9.9414450525666673 2 71.387244177111 5.8771358846181236 2 74.684714004503249 1.7833965613941385 2 80.52448420697219 11.733155101723977 2 78.537932403444273 2.3741868184709456 2 14.144081368251346 0.7 2 12.193985607118238 9.6258052473874294 2 25.54699567141682 9.2301825232730099 2 30.248625565401639 7.017014131975559 2 31.26945851045863 6.6431298679118056 2 35.0027570996549 9.1560138028607039 2 40.568972125495137 7.7815150355970246 2 44.998059200675577 6.843735099597148 2 61.868317372899774 3.5517212004602015 2 62.382947680666902 1.935861948497646 2 72.103192672310257 7.3576312211945698 2 74.408371732894238 11.179014011580179 2 79.570148271410389 3.9032153181470339 2 82.314393717809665 10.762004576151785 2 16.913492968495628 3.8816476014021335 2 27.125892057160051 3.7705428815088822 2 29.112161335949363 4.1486132852375874 2 41.849441942275583 5.7971321959611686 2 62.501002093086669 9.9217288667978316 2 68.669302869391373 8.4581268487441417 2 65.799558775624448 1.8386031407515335 2 77.714650827640611 7.7848634387017226 2 9.7211748681703938 4.6285346787334021 2 14.540641278750272 0.7 2 18.249835224800474 3.8238858768074819 2 28.429091577782266 4.1371409172722471 2 28.852807626211966 7.0168428736506723 2 63.028899278750622 3.2298280665858949 2 66.29118347783087 3.0642659884967678 2 74.236713914986652 2.5800623182358153 2 78.354278095909734 0.7 2 7.1720463508253243 5.1966713585034086 2 14.311881455912374 6.2971022476502316 2 30.36904135500253 3.2548140969430217 2 31.637303045809951 5.0819697966057689 2 44.607002908782555 7.279066132340005 2 62.562898954571047 9.2509298746051822 2 69.882220675946954 6.6795775883478221 2 67.942409201295888 12.168702862853145 2 70.527633735999089 6.2874215112758138 2 70.842239074058497 4.9831058065085561 2 76.175333523957576 4.6144700533678966 2 80.494346869775811 11.103198208469859 2 6.8730181119331668 0.7 2 9.9016624510921414 4.0067125570492896 2 13.699534016350128 6.3373994664509912 2 15.585549660458732 12.812105659831591 2 23.163089514169897 7.4724542693269376 2 30.859961117655025 7.0131288104412954 2 41.769392077011318 5.1549483516140722 2 62.473089823745418 3.2153233723825561 2 62.635182995007575 0.7 2 76.577018863057106 5.459370838203836 2 75.695187298341708 11.709261081943415 2 78.677262977646038 0.7 2 81.648537998856128 10.961315679142844 2 6.4298748479664942 6.0575128504821949 2 14.177485688804618 5.2761974138610235 2 27.368838234812891 4.4085849099662298 2 36.314869615737059 0.7 2 41.25989950130397 5.2911462025607499 2 63.250175887414365 7.9282203594639293 2 69.094500030344676 8.7758390565141493 2 69.171078241580787 2.7420613469117128 2 73.476991246235372 3.5171063994853324 2 75.006872591687596 0.7 2 78.205301164052273 5.3242833092624178 2 81.858747944412585 2.6633252103737388 2 7.6789473587546073 0.7 2 13.904265031134091 2.5219895689150569 2 12.848755880763331 11.937668036480455 2 15.531417368385643 6.9312568324946495 2 23.000694386232681 3.1589932787518133 2 28.556399993030439 6.5446186754569853 2 63.917879015998423 3.9035973250911313 2 64.081394370769956 3.0931312208204047 2 72.688727104018454 10.660118713855775 2 71.611831851423702 7.59398534604225 2 82.253458975261097 0.7 2 10.666860457006946 5.092207317069751 2 14.147571314372708 6.8069419528992441 2 31.268309216432538 3.5391950190537673 2 31.726291185146486 4.0420211123710272 2 40.911445371529247 0.7 2 42.897740311555751 4.6642363542967136 2 62.425496894951003 8.7554108829174133 2 66.796493386889907 3.2654964911062518 2 71.080817602106279 5.3531824227914058 2 70.479109172664138 4.5329113669438055 2 75.497435729898527 3.7572115471138017 2 78.784044350853051 8.1417395271730957 2 79.701679078565135 4.4302311235886629 2 93.244321850581002 7.1730372239329139 2 13.818754108130918 7.2289197377554251 2 31.138771926885372 8.386537387276281 2 75.722324029913466 7.1228412701258543 2 73.77379203357799 9.8982276182014051 2 75.774551523562806 4.3338323774795535 2 26.681150514561487 3.531914684249907 2 63.058915936632403 9.3967615927933004 2 66.152180160349374 8.7416064370632114 2 77.460172133864646 5.4928069216258342 2 12.065871125468314 3.1719637546805393 2 28.219830531980687 10.429524756625701 2 64.794278146897142 5.6812869691045185 2 63.955977669189124 4.4772044549021759 2 9.1447302402116719 10.052882543682076 2 12.656070110072211 10.598915859230805 2 32.69329810533543 5.3337922779642151 2 60.352275807384906 5.0654992501306957 2 69.849854863869297 7.1989839465133478 2 70.876901144762343 5.9039063367319207 2 74.31156577117072 3.2672239456566712 2 79.80522409842925 8.5602551697470091 2 5.9427602918216271 9.0848532947162077 2 8.8925869565105096 0.7 2 15.432438076545472 7.5362240379327616 2 20.068436814855772 5.7161926399672014 2 25.983841293254631 6.9872361034613792 2 33.793302792421422 14.203605876283149 2 40.374150346041183 8.4225232430217165 2 61.259973063885269 11.271141969760468 2 61.469036611128487 3.8383659432980481 2 66.041148602487993 0.7 2 67.556221807736634 15.986438094106431 2 69.618327711134398 13.111875602892306 2 81.131938169736614 6.7951033200423998 2 5.9305878205353926 8.106615197617268 2 18.317182952983295 4.9401380314120029 2 21.438243214352081 1.8950750757691637 2 30.039299835876818 2.8717975285745863 2 35.03494313348201 0.7 2 39.157729478527592 4.8569164317737599 2 46.11757993591349 2.1982758168456478 2 48.676200669865558 4.3366161665656691 2 65.200547442898426 19.336166915956063 2 68.89371546208227 0.7 2 74.196127901597549 1.921613979188586 2 79.13319952968908 12.271527593224469 2 77.114142779828128 0.7 2 83.352010075465103 0.7 2 7.3440266976625033 4.0787639902398656 2 16.667318847504788 7.3174546544461982 2 23.293733717925438 4.344923732308331 2 27.571362225661435 11.638455885208682 2 33.331222844135937 11.126427482891307 2 42.024849477693024 12.332878324816296 2 51.116571230431354 7.1497837597996821 2 58.829656772347427 12.100828845560107 2 62.481118877286434 11.099999990229623 2 67.226822377534248 12.239343400339097 2 72.070492658146151 9.7763712502411977 2 74.081940754003739 7.793183657099366 2 73.968747184308683 10.414418742082205 2 82.470658110158936 1.3571605678285092 2 3.8454577884116476 5.0474955496010976 2 9.6379559291490011 10.656436457367553 2 20.041713527056991 4.9804252881403546 2 30.037424122595766 2.3500143745571234 2 38.870618468660425 4.5083061762393646 2 40.572203945741286 0.7 2 45.723994700800311 3.3112914761029857 2 49.273551290733373 3.4860100124455338 2 59.038078928332752 0.7 2 66.360818893238502 13.236038510283622 2 69.466890472559328 0.7 2 82.388402870746731 2.5992224108919491 2 93.229775703779765 3.4419250852004573 2 1.8032637946159751 11.163488032800982 2 3.8544498332405492 6.7262290357525316 2 9.2417617890143031 3.6110180011915767 2 11.171128141346012 3.9016290206073032 2 15.607723389745688 11.14674298350967 2 18.032032257492261 10.025996075771012 2 27.600775605284866 6.8575035531276258 2 27.854992959904962 10.93260599336317 2 31.984691380081831 15.674173444050725 2 43.238417899444222 12.098357643319551 2 58.207109778824751 10.950066589654163 2 62.49829654407435 2.7658841210606204 2 63.702203512949531 3.287118287689085 2 71.754014864647957 8.7876449745402176 2 72.090163267755273 10.467770314946083 2 92.622952641618866 3.5370850277658104 2 94.513771798995933 7.7163457449500497 2 0.7 3.7517284094392966 2 3.4487620608745475 0.7 2 7.6676155572248232 11.994492371568013 2 14.478764780511902 2.4606155205470679 2 34.312590266494368 18.649780169438316 2 25.431579379444297 0.7 2 35.466243725123029 1.8468738477622375 2 36.04393179262982 1.8935962164017486 2 45.465620076764154 2.9193915580474719 2 47.427092350934423 8.9041149034979057 2 66.467313618974572 2.6855639988042426 2 73.833696430325929 0.7 2 79.404234392412604 11.684790062611773 2 75.825003280152274 3.359201029805015 2 82.055948453712489 3.1449873268680091 2 95.052545872305174 8.2681801737444225 2 96.596968661567459 2.807319303315142 2 0.7 9.5764089168310811 2 6.7527686619553604 9.6879440127145529 2 10.014371986417379 5.1551466158930035 2 10.569661076756651 14.647511763258146 2 16.442322900695867 6.7255660659470058 2 23.260399244729651 6.2
[...]
<PointData>
<DataArray Name="Points" NumberOfComponents="3" format="ascii" type="Float32">24.509826808973592 0.7 2 64.113235009753637 13.688811215811221 2 66.748075607415714 0.7 2 72.604340924529353 10.115334474824532 2 71.859071418534853 8.0489242556922971 2 74.434601624593398 0.7 2 14.679254550023467 7.0566303345154182 2 31.655349159832792 11.48550910682909 2 72.542641645562242 8.8274479411603881 2 67.384369624342725 8.4029597514740431 2 27.722236579717407 3.7777341285381962 2 71.524213490551276 5.2501921084918983 2 70.902382520710816 6.9234138486500978 2 77.09023136459399 5.1245128349196492 2 81.186644485677704 11.370167547361186 2 10.7361451643826 9.5109486372991174 2 27.214399310812059 10.862269507106326 2 30.813067868474921 9.8363934083419977 2 40.953131414672036 7.1692730566677314 2 72.222531505534505 9.2601959863941214 2 72.757088232199862 9.5935022194021506 2 77.418556099761901 7.1047402824433386 2 78.068919503737547 0.7 2 29.089190992954784 3.5398754901037677 2 61.084887061529002 4.8546769960493652 2 63.867787558058659 10.317391084222859 2 69.243338700997199 8.151327586723907 2 75.665607843847255 12.364083707934824 2 77.845000696225455 7.2205278102811459 2 10.365880175598754 4.5792723966666662 2 13.522939603225689 11.605457797862982 2 27.68580625524422 10.234018707365337 2 30.585729920613506 6.5229218060881191 2 35.536383098618614 9.0800089253214971 2 63.096859848918932 3.9426005825274641 2 66.419502494654495 0.7 2 68.598105099653523 9.3248871062444252 2 75.282499909081437 12.069815533453824 2 9.906159709543072 9.784617557191881 2 15.544618791012725 12.156364917470777 2 23.243291312155897 11.096763626006529 2 30.44335546510295 2.5758338962086196 2 61.465546294369965 10.649349454397841 2 67.377428450798035 3.3482322610209514 2 63.188541875430239 9.9414450525666673 2 71.387244177111 5.8771358846181236 2 74.684714004503249 1.7833965613941385 2 80.52448420697219 11.733155101723977 2 78.537932403444273 2.3741868184709456 2 14.144081368251346 0.7 2 12.193985607118238 9.6258052473874294 2 25.54699567141682 9.2301825232730099 2 30.248625565401639 7.017014131975559 2 31.26945851045863 6.6431298679118056 2 35.0027570996549 9.1560138028607039 2 40.568972125495137 7.7815150355970246 2 44.998059200675577 6.843735099597148 2 61.868317372899774 3.5517212004602015 2 62.382947680666902 1.935861948497646 2 72.103192672310257 7.3576312211945698 2 74.408371732894238 11.179014011580179 2 79.570148271410389 3.9032153181470339 2 82.314393717809665 10.762004576151785 2 16.913492968495628 3.8816476014021335 2 27.125892057160051 3.7705428815088822 2 29.112161335949363 4.1486132852375874 2 41.849441942275583 5.7971321959611686 2 62.501002093086669 9.9217288667978316 2 68.669302869391373 8.4581268487441417 2 65.799558775624448 1.8386031407515335 2 77.714650827640611 7.7848634387017226 2 9.7211748681703938 4.6285346787334021 2 14.540641278750272 0.7 2 18.249835224800474 3.8238858768074819 2 28.429091577782266 4.1371409172722471 2 28.852807626211966 7.0168428736506723 2 63.028899278750622 3.2298280665858949 2 66.29118347783087 3.0642659884967678 2 74.236713914986652 2.5800623182358153 2 78.354278095909734 0.7 2 7.1720463508253243 5.1966713585034086 2 14.311881455912374 6.2971022476502316 2 30.36904135500253 3.2548140969430217 2 31.637303045809951 5.0819697966057689 2 44.607002908782555 7.279066132340005 2 62.562898954571047 9.2509298746051822 2 69.882220675946954 6.6795775883478221 2 67.942409201295888 12.168702862853145 2 70.527633735999089 6.2874215112758138 2 70.842239074058497 4.9831058065085561 2 76.175333523957576 4.6144700533678966 2 80.494346869775811 11.103198208469859 2 6.8730181119331668 0.7 2 9.9016624510921414 4.0067125570492896 2 13.699534016350128 6.3373994664509912 2 15.585549660458732 12.812105659831591 2 23.163089514169897 7.4724542693269376 2 30.859961117655025 7.0131288104412954 2 41.769392077011318 5.1549483516140722 2 62.473089823745418 3.2153233723825561 2 62.635182995007575 0.7 2 76.577018863057106 5.459370838203836 2 75.695187298341708 11.709261081943415 2 78.677262977646038 0.7 2 81.648537998856128 10.961315679142844 2 6.4298748479664942 6.0575128504821949 2 14.177485688804618 5.2761974138610235 2 27.368838234812891 4.4085849099662298 2 36.314869615737059 0.7 2 41.25989950130397 5.2911462025607499 2 63.250175887414365 7.9282203594639293 2 69.094500030344676 8.7758390565141493 2 69.171078241580787 2.7420613469117128 2 73.476991246235372 3.5171063994853324 2 75.006872591687596 0.7 2 78.205301164052273 5.3242833092624178 2 81.858747944412585 2.6633252103737388 2 7.6789473587546073 0.7 2 13.904265031134091 2.5219895689150569 2 12.848755880763331 11.937668036480455 2 15.531417368385643 6.9312568324946495 2 23.000694386232681 3.1589932787518133 2 28.556399993030439 6.5446186754569853 2 63.917879015998423 3.9035973250911313 2 64.081394370769956 3.0931312208204047 2 72.688727104018454 10.660118713855775 2 71.611831851423702 7.59398534604225 2 82.253458975261097 0.7 2 10.666860457006946 5.092207317069751 2 14.147571314372708 6.8069419528992441 2 31.268309216432538 3.5391950190537673 2 31.726291185146486 4.0420211123710272 2 40.911445371529247 0.7 2 42.897740311555751 4.6642363542967136 2 62.425496894951003 8.7554108829174133 2 66.796493386889907 3.2654964911062518 2 71.080817602106279 5.3531824227914058 2 70.479109172664138 4.5329113669438055 2 75.497435729898527 3.7572115471138017 2 78.784044350853051 8.1417395271730957 2 79.701679078565135 4.4302311235886629 2 93.244321850581002 7.1730372239329139 2 13.818754108130918 7.2289197377554251 2 31.138771926885372 8.386537387276281 2 75.722324029913466 7.1228412701258543 2 73.77379203357799 9.8982276182014051 2 75.774551523562806 4.3338323774795535 2 26.681150514561487 3.531914684249907 2 63.058915936632403 9.3967615927933004 2 66.152180160349374 8.7416064370632114 2 77.460172133864646 5.4928069216258342 2 12.065871125468314 3.1719637546805393 2 28.219830531980687 10.429524756625701 2 64.794278146897142 5.6812869691045185 2 63.955977669189124 4.4772044549021759 2 9.1447302402116719 10.052882543682076 2 12.656070110072211 10.598915859230805 2 32.69329810533543 5.3337922779642151 2 60.352275807384906 5.0654992501306957 2 69.849854863869297 7.1989839465133478 2 70.876901144762343 5.9039063367319207 2 74.31156577117072 3.2672239456566712 2 79.80522409842925 8.5602551697470091 2 5.9427602918216271 9.0848532947162077 2 8.8925869565105096 0.7 2 15.432438076545472 7.5362240379327616 2 20.068436814855772 5.7161926399672014 2 25.983841293254631 6.9872361034613792 2 33.793302792421422 14.203605876283149 2 40.374150346041183 8.4225232430217165 2 61.259973063885269 11.271141969760468 2 61.469036611128487 3.8383659432980481 2 66.041148602487993 0.7 2 67.556221807736634 15.986438094106431 2 69.618327711134398 13.111875602892306 2 81.131938169736614 6.7951033200423998 2 5.9305878205353926 8.106615197617268 2 18.317182952983295 4.9401380314120029 2 21.438243214352081 1.8950750757691637 2 30.039299835876818 2.8717975285745863 2 35.03494313348201 0.7 2 39.157729478527592 4.8569164317737599 2 46.11757993591349 2.1982758168456478 2 48.676200669865558 4.3366161665656691 2 65.200547442898426 19.336166915956063 2 68.89371546208227 0.7 2 74.196127901597549 1.921613979188586 2 79.13319952968908 12.271527593224469 2 77.114142779828128 0.7 2 83.352010075465103 0.7 2 7.3440266976625033 4.0787639902398656 2 16.667318847504788 7.3174546544461982 2 23.293733717925438 4.344923732308331 2 27.571362225661435 11.638455885208682 2 33.331222844135937 11.126427482891307 2 42.024849477693024 12.332878324816296 2 51.116571230431354 7.1497837597996821 2 58.829656772347427 12.100828845560107 2 62.481118877286434 11.099999990229623 2 67.226822377534248 12.239343400339097 2 72.070492658146151 9.7763712502411977 2 74.081940754003739 7.793183657099366 2 73.968747184308683 10.414418742082205 2 82.470658110158936 1.3571605678285092 2 3.8454577884116476 5.0474955496010976 2 9.6379559291490011 10.656436457367553 2 20.041713527056991 4.9804252881403546 2 30.037424122595766 2.3500143745571234 2 38.870618468660425 4.5083061762393646 2 40.572203945741286 0.7 2 45.723994700800311 3.3112914761029857 2 49.273551290733373 3.4860100124455338 2 59.038078928332752 0.7 2 66.360818893238502 13.236038510283622 2 69.466890472559328 0.7 2 82.388402870746731 2.5992224108919491 2 93.229775703779765 3.4419250852004573 2 1.8032637946159751 11.163488032800982 2 3.8544498332405492 6.7262290357525316 2 9.2417617890143031 3.6110180011915767 2 11.171128141346012 3.9016290206073032 2 15.607723389745688 11.14674298350967 2 18.032032257492261 10.025996075771012 2 27.600775605284866 6.8575035531276258 2 27.854992959904962 10.93260599336317 2 31.984691380081831 15.674173444050725 2 43.238417899444222 12.098357643319551 2 58.207109778824751 10.950066589654163 2 62.49829654407435 2.7658841210606204 2 63.702203512949531 3.287118287689085 2 71.754014864647957 8.7876449745402176 2 72.090163267755273 10.467770314946083 2 92.622952641618866 3.5370850277658104 2 94.513771798995933 7.7163457449500497 2 0.7 3.7517284094392966 2 3.4487620608745475 0.7 2 7.6676155572248232 11.994492371568013 2 14.478764780511902 2.4606155205470679 2 34.312590266494368 18.649780169438316 2 25.431579379444297 0.7 2 35.466243725123029 1.8468738477622375 2 36.04393179262982 1.8935962164017486 2 45.465620076764154 2.9193915580474719 2 47.427092350934423 8.9041149034979057 2 66.467313618974572 2.6855639988042426 2 73.833696430325929 0.7 2 79.404234392412604 11.684790062611773 2 75.825003280152274 3.359201029805015 2 82.055948453712489 3.1449873268680091 2 95.052545872305174 8.2681801737444225 2 96.596968661567459 2.807319303315142 2 0.7 9.5764089168310811 2 6.7527686619553604 9.6879440127145529 2 10.014371986417379 5.1551466158930035 2 10.569661076756651 14.647511763258146 2 16.442322900695867 6.7255660659470058 2 23.260399244729651 6.2537388596321559 2 27.904833905060606 15.628547013145436 2 33.60085025797072 15.393282574092332 2 42.633918537463842 11.691401215702824 2 44.07074775343952 13.134646805449783 2 51.609941411382422 5.5859050103349768 2 62.768012681430363 10.333149489071708 2 66.786824550127164 16.409206984051512 2 69.723065967411912 14.433665877779873 2 73.216587404142189 4.272091210633735 2 73.961991706229895 14.541400245331445 2 78.98252646790074 0.7 2 93.467875053374726 0.7 2 2.6354468313688759 3.1843139062210257 2 4.6180435414620504 3.764116931845034 2 14.999370282360584 2.8377898982495573 2 20.660285125583034 5.9382029780087562 2 25.629655080105284 1.1328185319310971 2 26.440162714145746 12.856968424746011 2 33.937041955096454 13.564461860586498 2 34.740841523981096 0.7 2 41.852636774287845 0.7 2 43.439440107338051 3.8980528308785618 2 58.025293014398777 3.3311505795616894 2 63.892863341874914 12.274561496182615 2 71.436801728922319 4.8263282104979091 2 80.15339937144806 3.9401485081597332 2 93.182504125577879 2.8316965415883324 2 4.2677659126590131 6.1745515567597158 2 9.4260765991597424 2.9093725255908218 2 14.338277944963094 1.3128446837263621 2 11.834358632451437 8.9032304860356177 2 17.018163034974446 10.187717729821857 2 20.737753009070111 9.0414591556320811 2 24.437293551545885 8.7302598151031567 2 29.27182979184839 9.8941968164697442 2 35.003457385252169 9.7157670626408859 2 35.567759199866543 6.1277403013385303 2 40.825610410514081 9.3534028098680793 2 41.846353615655957 9.3300898901177458 2 45.456972381648114 10.796008183168494 2 50.895203118730464 7.9124497905786226 2 59.008559623770758 17.091317304423761 2 62.073680106273024 0.7 2 65.308425827717272 0.7 2 68.344746067104168 16.170394746432848 2 70.399600735592358 6.7599528414928685 2 72.984314975947669 8.1469885813990537 2 70.256532248853134 14.424693880798813 2 77.392128930183205 11.242803844156642 2 78.508648270774984 1.842226292871038 2 81.029170684491447 6.031544184712355 2 86.455377196290627 3.4242318267402498 2 97.824678827122483 7.6375917162768667 2 0.7 0.7 2 6.1528729695664168 0.7 2 6.6296539875729756 8.3426346264461255 2 17.120649987632778 5.551591492102415 2 15.60900228810411 15.520399840681296 2 19.220170688317189 4.2537792482885202 2 24.853499291461105 3.8100153510045685 2 30.570075006246288 1.9292684346370883 2 38.347049927478373 4.2009911940679494 2 40.227529630982879 4.37589032843825 2 44.24696842524115 0.7 2 48.760381062639098 3.7604567019429544 2 58.863560860432059 6.9166741955460163 2 65.139306008446852 6.1876187385433417 2 68.097534063008638 11.491138041171277 2 69.553487118801613 2.1881003522448794 2 73.544179340151061 0.7 2 77.810461581882663 15.212514243234361 2 78.150597706791473 1.3891013002567985 2 81.227412718701927 5.5948056346880124 2 98.118672662176962 5.536881874997051 2 6.5134799776942609 4.2298318416911158 2 14.110030945464947 2.9896288091257501 2 9.2615046997547505 11.031213843497326 2 16.841609253975271 7.8970943251498991 2 24.183503025960196 3.6225583050958861 2 27.107345520690526 6.5339620632474009 2 28.246518983982931 14.095018380070533 2 29.487304977087113 6.8125810657247508 2 35.6738454408096 10.037054964012009 2 38.883402848672418 8.461448707894963 2 42.908192439799855 9.9796900958409687 2 49.105643587684362 8.7605744566521064 2 56.157326674210687 15.317458665690017 2 62.178625557909697 10.46850954322348 2 64.602110161113529 6.689627635745639 2 68.055905144608516 4.4276793358704234 2 67.630156143304333 15.370028729439138 2 69.069532035352339 12.258814504136732 2 71.099943962292514 6.4692738417716278 2 76.585442469590419 19.183763483753765 2 73.174932779846486 10.180150188026504 2 82.62302595990441 0.7 2 79.930134781881975 12.047271154704687 2 97.050819894105956 13.450024722521112 2 3.2524415165616705 6.6963991109294252 2 5.9475258935539097 6.4698709727687413 2 9.2975178797772777 9.4635822018924465 2 10.583824175689147 12.445408626422056 2 15.165402152100524 11.657847173529278 2 20.200763014063646 3.5685912265071988 2 30.018497342509299 0.7 2 31.928865573581689 4.5824256892242499 2 39.021455534773146 4.0505425423033907 2 42.304289899711911 0.7 2 45.00525275531195 6.0060571496978321 2 49.294215370079428 2.7124006303670503 2 54.999735748031959 2.9025296749239664 2 58.684923590456108 0.7 2 62.839399631753352 8.2813541977508969 2 68.67073400665447 7.7811918172941077 2 64.63471966551171 14.042204378434043 2 69.312924278244992 7.0034106585016973 2 71.432121532476458 0.7 2 75.22071624149379 4.1290038592076179 2 79.436221764888188 11.012442112038503 2 82.32876894997419 3.9225080401150962 2 96.843417569627164 0.7 2 2.7817148766004807 11.172131695137018 2 5.4538738157090361 9.4549741291543867 2 8.6588890320412677 3.6993289007271515 2 9.2816815407369724 0.7 2 17.47950462353673 9.913563608156748 2 17.970536106374798 8.6061659266127357 2 27.229052354929586 5.7574904968450697 2 28.836412548291154 10.398720737398476 2 31.110247059320006 10.946959649661336 2 31.413836197182356 7.2022308647241733 2 42.848280823961616 10.855590194768563 2 61.88555360721751 10.958960434527166 2 61.550757745821755 2.8816991383307036 2 63.497951821741381 0.7 2 71.648532318690229 10.006793577343476 2 72.156570858783297 11.719526652677793 2 82.908143742462499 9.0918839231630884 2 91.936783126861442 7.7285313892088245 2 95.122279448465335 7.5532475836297959 2 0.7 2.9945323291306987 2 5.1026819249291808 0.7 2 8.833412218129812 10.604667729761585 2 12.841211182680631 17.855216453067779 2 14.604896710709669 2.9946178750440127 2 20.571514291327205 0.7 2 25.894261677261134 0.7 2 34.694547069350662 1.4518925664925797 2 37.268240769711262 2.6727776912386503 2 39.699444920123206 4.3718025339596194 2 44.488408311113346 3.0683772981831754 2 47.288586108157581 8.2422505850413774 2 55.203913464108915 3.8136976221837542 2 59.348997453218502 9.1068711610375299 2 60.969349841472095 18.315181126003939 2 69.175346638438683 0.7 2 73.230253744328152 0.7 2 78.776103294742143 11.710603920453705 2 74.644356654710933 2.9094861152223288 2 82.776989355382781 2.0248965876271421 2 95.225602210558733 8.8644650168709198 2 97.774045202642895 2.4869256137952118 2 0.7 10.299048578013133 2 10.015415825050859 5.781947928968485 2 11.853273369303196 12.335266008095838 2 17.767985481072074 4.926417648832297 2 21.839191544099119 1.8804519613792405 2 27.51214419392976 12.410781389554042 2 31.651501245752922 5.6406543624863827 2 34.065169216596743 11.809298361556289 2 37.888469084159169 5.610670050073522 2 49.748219448939977 3.1457019056420359 2 67.936831673401286 14.921849592352116 2 74.769607378122203 6.5550097159784659 2 74.801423347526978 12.628881748855342 2 81.84846392441122 0.7 2 0.7 4.1784033798124351 2 3.5228107697847864 6.2935886757120514 2 14.66191279093947 1.714198854931634 2 22.58916774950923 5.793035183573088 2 26.334353212452761 4.0435865341117303 2 34.549929468215062 13.645250831371792 2 30.344825231826242 0.7 2 45.144475659714153 0.7 2 44.058021731325269 4.8990286970076449 2 56.110319769990866 5.2152825705426915 2 58.489753776776276 2.5622000543084273 2 63.504890419532927 10.540586056015202 2 69.467960522536501 3.3868028293064936 2 81.650644862403595 4.963694693376846 2 91.381615851461859 3.587888324538187 2 96.940227659339712 2.4283609167352265 2 13.03266341939212 7.2079885199552143 2 31.545394261758069 7.9552727048265179 2 44.459543481440619 6.6850514968533892 2 75.173075328439168 7.0364397380802348 2 78.330732950220522 8.9437879431204692 2 76.087877195000772 4.0431174408622619 2 25.329615817471041 3.0502949583155772 2 63.715386052440621 9.6673653727042961 2 66.998964401695815 9.2535087677807901 2 78.76791793646828 5.3430677623097216 2 14.322121872035275 5.7597637912101503 2 28.186857226825651 7.0499994983834275 2 61.615827498484975 4.2547350154155925 2 65.524778469655132 6.3605680118925161 2 12.547656723940072 6.436438076866664 2 14.172565988694695 8.0561161238843724 2 32.247520812325192 5.1516452136740245 2 60.296006132057819 5.6028165718172218 2 65.217467602886416 6.8741866899064137 2 66.937947645410844 3.9364998578464929 2 75.403573841407152 6.4072394707221374 2 76.27638866654577 11.452828484646176 2 3.3146438138433769 7.8017265866187744 2 6.4837918629667044 6.6726344511144511 2 8.9422738975915319 3.1662060451452141 2 11.14504211732004 0.7 2 13.481137953464195 6.8016197591237075 2 16.062287701940051 7.2655888145289493 2 20.679751572373394 6.5137115070870637 2 23.8734810496317 8.4140290835860245 2 29.812513599863255 9.8669235908220028 2 34.420904636382616 9.0375478566191223 2 35.543075943724283 8.3254725265630896 2 38.205324054625741 11.156645426820488 2 41.65827322600434 7.004725316606141 2 44.924418359261288 7.8559244173204688 2 50.399196674069636 8.4785748888339434 2 61.477595169409433 13.994928054130213 2 59.138245929834326 1.8085986064988684 2 63.911041799963868 0.7 2 69.201231397823236 9.4303767916512893 2 73.322655885868969 9.5333802243980408 2 73.532832138082483 13.4509919260479 2 75.590431231283191 11.128675916287499 2 78.772668390347548 4.8974411817932424 2 81.95387547335703 7.8681050379448658 2 87.021574546617558 5.4052782585183765 2 95.962597792714064 8.7648144766936902 2 1.2123828807273098 0.7 2 4.0916647373572994 0.7 2 6.5105016519948053 7.1756660037837907 2 14.368668776223256 4.7597557602978586 2 15.930100212367531 13.503622270914866 2 20.703325294034961 3.058990913046066 2 25.442188878098531 3.8698944698636311 2 27.719458087187064 17.172421216523631 2 30.271260781029181 1.7066527545625032 2 35.582045456349626 0.7 2 38.332997608557903 5.3315438613421859 2 41.203547576770426 0.7 2 45.512992887483549 1.3135760720725209 2 46.205915868262082 3.5910583495636921 2 57.030825700138038 0.7 2 59.395660890438762 5.6699945854473253 2 68.122594912092126 8.3759460471875347 2 67.487332851306533 11.765076758953434 2 66.417880642756089 16.86050864249755 2 68.859987118885002 1.6886611222311112 2 73.839186447887087 3.159992774987908 2 79.476542163899836 16.612583297799777 2 75.427004901597556 3.0141009581655682 2 78.20025791460489 5.7906320496829276 2 85.571028748081403 0.7 2 84.150325045215055 18.254262787625702 2 97.545261476460055 5.4962279074651921 2 7.9418822893642638 4.1226778992449988 2 13.483877766853146 3.080325703086959