<?xml version="1.0" ?>
<VTKFile byte_order="LittleEndian" type="UnstructuredGrid" version="0.1">
<UnstructuredGrid>
<Piece NumberOfCells="0" NumberOfPoints="120">
<Points>
<DataArray NumberOfComponents="3" format="ascii" type="Float32">6.4919137439693628 2.2778301465125721 2 18.363251379011604 11.222022807050582 2 20.897872657725504 1.2 2 24.165197813548801 1.2 2 40.83701453380371 14.551204420479648 2 46.090099055067576 5.9829032618591542 2 50.662350540968163 3.2580667163459918 2 54.250524207932152 10.300181253955927 2 57.061009810647896 7.3376835861619885 2 59.379775159007238 8.9301590831092597 2 83.477092015284526 4.6184995590344746 2 87.000606105539063 9.4392734389771995 2 90.50111126020505 7.9693602399740628 2 91.309717264710244 12.098573359829658 2 93.107999249405026 13.014938635143826 2 98.4 1.5999999999999999 2 22.051828876167828 13.153099026894838 2 23.518903412196032 8.5463866800557078 2 37.593942275507096 1.4 2 45.908467017656058 7.0144400366244097 2 47.879661748347871 13.837983288136014 2 51.903090338589671 3.513181089143381 2 53.665976098392065 3.0000776396810296 2 54.415348001440151 16.084233188908541 2 83.400918916800109 7.5945957306811884 2 87.498066260005047 5.1435680156813204 2 90.540351047628178 1.4 2 94.405027368537517 5.0318996812221597 2 98.4 7.8521465494194382 2 3.6876565367259828 13.945772399122877 2 18.501429738187532 13.795832028944869 2 38.443820969399532 12.332254328178429 2 46.656964014194884 1.5999999999999999 2 51.736908206498512 5.5087327142341946 2 51.222326604989192 11.244646917280502 2 52.542330231482516 9.4241460164163389 2 55.311350871882361 6.7352215984905355 2 57.779921550363376 5.6773480833963186 2 85.565614310084314 9.0956785291817006 2 89.711294302853148 13.550721772021383 2 91.795481837906664 9.8094296753599579 2 94.674567356579104 15.227596561023192 2 98.4 6.1159306592164517 2 2.7232506415838351 4.3802174362594215 2 6.2956836820930349 14.683528698681418 2 22.565711230629013 16.027923706059543 2 35.985945802691987 5.6046331874839312 2 39.483327016184795 6.166357207024614 2 47.316749906741968 11.196939095509899 2 52.178690794132336 14.31953449226708 2 52.856592007099948 4.6768395872464525 2 55.118472675677083 1.4 2 52.866496341915678 11.928732568243582 2 58.959256805715114 5.0261573949318112 2 84.271445726260524 11.85850068980638 2 86.781265557100298 1.4 2 89.002220033707303 3.2572596107159186 2 89.464226492119536 4.706234610180819 2 98.4 12.479704120020916 2 19.734624082702101 9.7498486432251461 2 22.914269249899533 1.4 2 36.969992812646403 10.602111836127438 2 43.260534393438611 14.88748959199603 2 50.767318647977916 1.5999999999999999 2 51.406351947940415 7.6574528397328283 2 55.854760185772484 11.49280722218985 2 56.168026103999033 9.1603923641808631 2 58.674771037066272 7.3996192470796593 2 82.712952051807235 6.103265804417271 2 88.701851153139614 9.1594488957338172 2 89.846499888940599 10.544823357633899 2 91.632350266959961 15.273197585178373 2 93.454750406493631 10.389100392049977 2 98.4 3.1027938678457256 2 7.4266804872831997 11.814352343704048 2 18.423282473340016 3.5130068885286501 2 24.243350273947783 13.95890493802977 2 23.239630716523468 10.637922289524614 2 35.079333242053579 3.2712774354114273 2 39.725181592944111 2.9831589240974159 2 47.252440691222731 9.0208912294292531 2 49.954143269094068 13.006942065193705 2 52.362633923808055 1.5999999999999999 2 53.777988532738433 1.5999999999999999 2 56.516749639524555 14.388895147392731 2 58.371911973396884 2.6990546034146323 2 82.396744873319093 9.188095807822668 2 86.129900361469879 6.5164507375715184 2 87.223987260803852 3.673019135480009 2 98.4 10.392927296122183 2 4.1500950558903451 10.162177447894294 2 6.17339202445506 3.7932971959360353 2 16.773547051662614 15.90255969680419 2 22.300926482715813 7.1787553143100036 2 21.895651974297913 1.4 2 36.844847330694883 8.9464143972016466 2 38.638583924087477 15.473204158002545 2 50.340828922671065 9.2225350404419757 2 52.731153835970474 7.2035426708900694 2 54.433343669168757 8.3236727722303101 2 58.110007337396944 3.6793978487266594 2 87.500787539125682 7.0627685666753734 2 88.107637077847201 11.746722956968332 2 92.163207612549954 7.7287971677654559 2 97.80838295409508 15.768768333123916 2 98.4 4.5798914002100837 2 3.1599296286180425 6.4407379446729713 2 8.5318303015091512 16.161366304668444 2 17.653000249576806 1.4 2 20.13026025585399 15.298176348503286 2 21.605946048436675 8.6434033257621454 2 45.441350124531787 12.919530748711571 2 49.94938153046332 15.894391696701311 2 53.980449276069336 5.8264753994572036 2 54.564950996180471 13.215861619785677 2 84.125947472917659 9.7456508494751404 2 87.959239038308141 1.5999999999999999 2 89.401707743473878 1.5999999999999999 2 89.039607491662778 7.1138865946845407 2 96.769457735021504 13.452216883377442 2 </DataArray>
</Points>
<Cells>
<DataArray Name="connectivity" format="ascii" type="Int32">0</DataArray>
<DataArray Name="offsets" format="ascii" type="Int32">0</DataArray>
<DataArray Name="types" format="ascii" type="UInt8">1</DataArray>
</Cells>
<PointData>
<DataArray Name="Points" NumberOfComponents="3" format="ascii" type="Float32">6.4919137439693628 2.2778301465125721 2 18.363251379011604 11.222022807050582 2 20.897872657725504 1.2 2 24.165197813548801 1.2 2 40.83701453380371 14.551204420479648 2 46.090099055067576 5.9829032618591542 2 50.662350540968163 3.2580667163459918 2 54.250524207932152 10.300181253955927 2 57.061009810647896 7.3376835861619885 2 59.379775159007238 8.9301590831092597 2 83.477092015284526 4.6184995590344746 2 87.000606105539063 9.4392734389771995 2 90.50111126020505 7.9693602399740628 2 91.309717264710244 12.098573359829658 2 93.107999249405026 13.014938635143826 2 98.4 1.5999999999999999 2 22.051828876167828 13.153099026894838 2 23.518903412196032 8.5463866800557078 2 37.593942275507096 1.4 2 45.908467017656058 7.0144400366244097 2 47.879661748347871 13.837983288136014 2 51.903090338589671 3.513181089143381 2 53.665976098392065 3.0000776396810296 2 54.415348001440151 16.084233188908541 2 83.400918916800109 7.5945957306811884 2 87.498066260005047 5.1435680156813204 2 90.540351047628178 1.4 2 94.405027368537517 5.0318996812221597 2 98.4 7.8521465494194382 2 3.6876565367259828 13.945772399122877 2 18.501429738187532 13.795832028944869 2 38.443820969399532 12.332254328178429 2 46.656964014194884 1.5999999999999999 2 51.736908206498512 5.5087327142341946 2 51.222326604989192 11.244646917280502 2 52.542330231482516 9.4241460164163389 2 55.311350871882361 6.7352215984905355 2 57.779921550363376 5.6773480833963186 2 85.565614310084314 9.0956785291817006 2 89.711294302853148 13.550721772021383 2 91.795481837906664 9.8094296753599579 2 94.674567356579104 15.227596561023192 2 98.4 6.1159306592164517 2 2.7232506415838351 4.3802174362594215 2 6.2956836820930349 14.683528698681418 2 22.565711230629013 16.027923706059543 2 35.985945802691987 5.6046331874839312 2 39.483327016184795 6.166357207024614 2 47.316749906741968 11.196939095509899 2 52.178690794132336 14.31953449226708 2 52.856592007099948 4.6768395872464525 2 55.118472675677083 1.4 2 52.866496341915678 11.928732568243582 2 58.959256805715114 5.0261573949318112 2 84.271445726260524 11.85850068980638 2 86.781265557100298 1.4 2 89.002220033707303 3.2572596107159186 2 89.464226492119536 4.706234610180819 2 98.4 12.479704120020916 2 19.734624082702101 9.7498486432251461 2 22.914269249899533 1.4 2 36.969992812646403 10.602111836127438 2 43.260534393438611 14.88748959199603 2 50.767318647977916 1.5999999999999999 2 51.406351947940415 7.6574528397328283 2 55.854760185772484 11.49280722218985 2 56.168026103999033 9.1603923641808631 2 58.674771037066272 7.3996192470796593 2 82.712952051807235 6.103265804417271 2 88.701851153139614 9.1594488957338172 2 89.846499888940599 10.544823357633899 2 91.632350266959961 15.273197585178373 2 93.454750406493631 10.389100392049977 2 98.4 3.1027938678457256 2 7.4266804872831997 11.814352343704048 2 18.423282473340016 3.5130068885286501 2 24.243350273947783 13.95890493802977 2 23.239630716523468 10.637922289524614 2 35.079333242053579 3.2712774354114273 2 39.725181592944111 2.9831589240974159 2 47.252440691222731 9.0208912294292531 2 49.954143269094068 13.006942065193705 2 52.362633923808055 1.5999999999999999 2 53.777988532738433 1.5999999999999999 2 56.516749639524555 14.388895147392731 2 58.371911973396884 2.6990546034146323 2 82.396744873319093 9.188095807822668 2 86.129900361469879 6.5164507375715184 2 87.223987260803852 3.673019135480009 2 98.4 10.392927296122183 2 4.1500950558903451 10.162177447894294 2 6.17339202445506 3.7932971959360353 2 16.773547051662614 15.90255969680419 2 22.300926482715813 7.1787553143100036 2 21.895651974297913 1.4 2 36.844847330694883 8.9464143972016466 2 38.638583924087477 15.473204158002545 2 50.340828922671065 9.2225350404419757 2 52.731153835970474 7.2035426708900694 2 54.433343669168757 8.3236727722303101 2 58.110007337396944 3.6793978487266594 2 87.500787539125682 7.0627685666753734 2 88.107637077847201 11.746722956968332 2 92.163207612549954 7.7287971677654559 2 97.80838295409508 15.768768333123916 2 98.4 4.5798914002100837 2 3.1599296286180425 6.4407379446729713 2 8.5318303015091512 16.161366304668444 2 17.653000249576806 1.4 2 20.13026025585399 15.298176348503286 2 21.605946048436675 8.6434033257621454 2 45.441350124531787 12.919530748711571 2 49.94938153046332 15.894391696701311 2 53.980449276069336 5.8264753994572036 2 54.564950996180471 13.215861619785677 2 84.125947472917659 9.7456508494751404 2 87.959239038308141 1.5999999999999999 2 89.401707743473878 1.5999999999999999 2 89.039607491662778 7.1138865946845407 2 96.769457735021504 13.452216883377442 2 </DataArray>
<DataArray Name="forces" NumberOfComponents="3" format="ascii" type="Float32">-0.10985652663313936 0.32633490879531657 0.0 -0.0029087844964720277 0.42857848197048271 0.0 -0.13890363074268108 -1.5340251050575682 0.0 -0.06525057986369151 -1.9526494755289479 0.0 -0.013405030592926831 0.64318052492441191 0.0 0.0049468897252913533 0.38418290208346739 0.0 -0.11552774144545985 0.34274391951250049 0.0 -0.087273125276088173 0.48565801135944142 0.0 -0.058797860712352934 0.27361200435825661 0.0 -0.13913934289068286 0.15162637389859562 0.0 0.19061781761828817 0.057157028330357684 0.0 0.10709508746657458 0.41325260535360198 0.0 0.029215707682122408 0.25784171642551401 0.0 -0.092318549732322341 0.66073683589574439 0.0 -0.079445855584017955 0.70490054966444093 0.0 2.3530065264081661 -1.9933504737643213 0.0 -0.10168513835050749 0.75703136539285232 0.0 -0.0034523515753798195 0.348841789870799 0.0 0.2864254320342236 -2.1036843655622057 0.0 0.066842446468810116 0.36956746193820922 0.0 -0.033513827017893572 0.55931924578486836 0.0 -0.012282165514831047 0.14846882958368288 0.0 0.13650145455987761 0.29282978286256867 0.0 -0.13312695073683603 0.86802700494723295 0.0 0.057257784138464052 0.40160463994241563 0.0 -0.0034746139895900363 0.28593145520471364 0.0 0.0062088645723708466 -1.5071341174787616 0.0 -0.33675122016008097 0.090441451594544087 0.0 2.3137838319188466 0.24813948665092209 0.0 0.082618236355461686 0.69151451867531666 0.0 -0.035118201796626503 0.63445843422028647 0.0 0.095532416963201222 0.62812702778332441 0.0 0.14960337933146983 -1.7062534800101592 0.0 0.0050488264260655225 0.18866154812650704 0.0 0.012887137391220327 0.4751960232458699 0.0 -0.043062326757767444 0.46700225390227668 0.0 -0.090839237584210641 0.34530387110654215 0.0 -0.048095145054225366 0.24814058683739693 0.0 0.13931752881881532 0.42594362428603905 0.0 0.054154456024889885 0.7091159166449158 0.0 -0.017902435984707671 0.52242994547530808 0.0 0.053174035563390953 0.86343608872923383 0.0 2.8716939508896329 0.23171909177009758 0.0 -0.10972071247018478 0.15932608268354853 0.0 -0.056886280616778695 0.68078094372369324 0.0 0.077863260448768568 0.8338323714363558 0.0 0.015677007504215246 0.33325268689374365 0.0 -0.092829383543158506 0.24100405053404361 0.0 -0.032697896905957147 0.5865331630191406 0.0 -0.07637400013377299 0.74812262078534775 0.0 -0.12245369452262178 0.29592750375345628 0.0 -0.17098648165149241 -2.0107177904849989 0.0 -0.036145040590445543 0.68784218371796568 0.0 -0.11560806438774995 0.20881667383098357 0.0 0.064778540153515987 0.55697361542408763 0.0 0.11362846618770861 -2.5753060427752175 0.0 0.055759066070938168 0.21374446321422386 0.0 -0.06584080366823869 0.17071208729204396 0.0 1.45993404510032 0.67656735156730519 0.0 -0.08864473890291899 0.35139959480838179 0.0 -0.11376943368676978 -1.9839759215835524 0.0 -0.04121040882253435 0.37904160200677206 0.0 0.095880682331512979 0.62719844157167326 0.0 -0.044657660685733687 -2.2185126368308312 0.0 -0.022272837904896634 0.44506679793233611 0.0 -0.1395089679752175 0.61031916152542276 0.0 -0.032580263446724711 0.41167522260966311 0.0 -0.098501399769888393 0.28647206850155704 0.0 0.040553468425718747 0.35074772045683855 0.0 0.04538035268098381 0.50897512277928292 0.0 0.021256898777318622 0.46902718945762312 0.0 0.030661323997174778 0.85506106109823965 0.0 0.012879016850016745 0.53347222981028253 0.0 2.5778949021958968 0.26734747964264716 0.0 -0.063872882771271594 0.47481392841247666 0.0 0.12366756616651672 0.15696952395644004 0.0 0.0027478464325871033 0.69089752710392838 0.0 -0.12667485213357893 0.50300461142252806 0.0 0.1687837543694671 0.1255545162766547 0.0 -0.05825834756698911 -0.046672525996628036 0.0 0.18150093616061172 0.34668994181649115 0.0 0.024022605164822828 0.64444595240264013 0.0 -0.088458469043882326 -2.5015330776143418 0.0 -0.17579133297820582 -2.2489619391611217 0.0 0.0088632140034166085 0.80787125725732978 0.0 -0.017400075638308032 0.03472151989581676 0.0 0.22351872873163392 0.46502542937367347 0.0 0.12097991590118518 0.34807939744522648 0.0 -0.070862244000666652 0.24697788865639447 0.0 2.1068329620739275 0.57798627946111791 0.0 -0.2033315432990794 0.16293959741918351 0.0 -0.19654315263118075 0.29754470134242428 0.0 -0.16279851110867191 0.62617805091356693 0.0 0.043801485137389878 0.29773469581187795 0.0 -0.095559632183846666 -1.7400634249039841 0.0 0.083240312079767856 0.33295877645957211 0.0 -0.01389536824843518 0.84826697051787003 0.0 -0.1703772433411212 0.33481979343055446 0.0 -0.077903977925318918 0.33502094811980843 0.0 -0.0090984469748763702 0.38974533970316383 0.0 -0.13192764110953381 0.046872060742495891 0.0 0.18706399463386392 0.27790097733080904 0.0 0.046621009631897761 0.67773726214015151 0.0 0.029334421943022108 0.4622518278489961 0.0 0.29482610270680082 0.61393160210449038 0.0 2.9006997435199366 0.33837237149247168 0.0 0.036212597811809855 0.21847011618147272 0.0 -0.043288102453430281 0.8406883926797154 0.0 0.082422239412232035 -1.9656086539162498 0.0 -0.13067693903301414 0.8502942861133107 0.0 -0.01415642363304459 0.35925036161005464 0.0 -0.16533236781035787 0.7780007439212957 0.0 -0.18482773601932481 0.79121558964587801 0.0 0.017086311501426477 0.28022248846924902 0.0 -0.0034617632067887039 0.70778953402218203 0.0 0.19362153947584326 0.57755075421405822 0.0 0.07734199648630935 -1.9302763675645656 0.0 0.046902317145548184 -1.7493105378837994 0.0 0.2079769732661787 0.38450536007213543 0.0 -0.18344760479038796 0.67419236657328985 0.0 </DataArray>
<DataArray Name="radii" format="ascii" type="Float32">1 1.5999999999999999 1.2 1.2 1.5999999999999999 1.2 1.4 1.5999999999999999 1.5999999999999999 1.4 1.2 1.5999999999999999 1.5999999999999999 1.5999999999999999 1.5999999999999999 1.5999999999999999 1.5999999999999999 1.5999999999999999 1.4 1.4 1.5999999999999999 1.5999999999999999 1.4 1.5999999999999999 1.5999999999999999 1.5999999999999999 1.4 1.4 1.5999999999999999 1.5999999999999999 1.5999999999999999 1.5999999999999999 1.5999999999999999 1.2 1.5999999999999999 1.5999999999999999 1.5999999999999999 1.5999999999999999 1.5999999999999999 1.5999999999999999 1.5999999999999999 1.5999999999999999 1.5999999999999999 1.2 1.5999999999999999 1.5999999999999999 1.4 1.4 1.5999999999999999 1.5999999999999999 1.5999999999999999 1.4 1.5999999999999999 1.4 1.5999999999999999 1.4 1.5999999999999999 1.5999999999999999 1.5999999999999999 1.4 1.4 1.5999999999999999 1.5999999999999999 1.5999999999999999 1.5999999999999999 1.5999999999999999 1.5999999999999999 1.5999999999999999 1.4 1.5999999999999999 1.5999999999999999 1.5999999999999999 1.5999999999999999 1.5999999999999999 1.4 1.4 1.5999999999999999 1.5999999999999999 1.2 1.4 1.4 1.5999999999999999 1.5999999999999999 1.5999999999999999 1.5999999999999999 1.2 1.5999999999999999 1.5999999999999999 1.5999999999999999 1.5999999999999999 1.4 1.4 1.5999999999999999 1.4 1.4 1.5999999999999999 1.5999999999999999 1.5999999999999999 1.5999999999999999 1.5999999999999999 1.4 1.5999999999999999 1.5999999999999999 1.5999999999999999 1.5999999999999999 1.5999999999999999 1.2 1.5999999999999999 1.4 1.5999999999999999 1.4 1.5999999999999999 1.5999999999999999 1.5999999999999999 1.5999999999999999 1.5999999999999999 1.5999999999999999 1.5999999999999999 1.5999999999999999 1.5999999999999999 </DataArray>
</PointData>
<CellData/>
</Piece>
</UnstructuredGrid>
</VTKFile>
