<?xml version="1.0" ?>
<VTKFile byte_order="LittleEndian" type="UnstructuredGrid" version="0.1">
<UnstructuredGrid>
<Piece NumberOfCells="0" NumberOfPoints="163">
<Points>
<DataArray NumberOfComponents="3" format="ascii" type="Float32">27.054573672208139 0.7 2 64.682116615307265 10.971910772264483 2 67.39526025109366 0.7 2 72.494822609560529 8.9363752161085532 2 71.719321621340796 6.8578634249308248 2 73.672720649724511 0.7 2 15.039663078460325 6.350066868881731 2 31.72780283034691 9.4670469069652814 2 72.676712861798364 7.6992058478263257 2 67.262628901051073 6.9079857378187883 2 28.257967697571097 2.9747242187518914 2 72.298231185005577 3.4926999320544567 2 71.370419342635614 5.7036828617236717 2 76.86239844469533 4.5972054020267148 2 80.869320763525494 9.8602826101164052 2 11.3232818196935 7.4769026560934382 2 27.873229574088224 9.4547622547729375 2 30.669228236052081 8.6568055685690233 2 40.231026204583983 6.0523983271668866 2 71.643509308493364 7.9546133386027718 2 73.57148783212331 8.4204714025129341 2 76.659629237103175 5.9500433770309602 2 76.976691401656964 0.7 2 28.870622706391135 2.2277859376730165 2 61.055226278362511 3.4756770481023844 2 65.023733541284045 8.3570958056855034 2 69.375701448321038 6.8506789951549978 2 75.854711202604875 11.012877465967758 2 77.547452831446449 6.1977140432162949 2 11.42050576948386 3.5925071806049358 2 14.220985188789468 10.183851201877976 2 27.224039388660525 8.374573581007267 2 30.824535920290419 5.326215097771315 2 35.498354363408282 8.2775135334855179 2 63.266584803640662 3.3621112541650024 2 66.62479305052841 0.7 2 69.098395839239089 8.8825012868586128 2 75.043440749799259 10.038455513754819 2 10.265472386592714 8.2812377340031915 2 15.472507155457988 9.9228732481600641 2 25.015228338412545 8.4675334836270864 2 30.917533412529327 2.435288455886309 2 61.310341183733286 8.1352272047549388 2 68.524420098357268 2.2820638448827699 2 63.802795402582433 8.5235328781785267 2 71.578715578087454 4.5081561741719787 2 73.733850350166577 1.7305625666969167 2 79.717894843752475 10.580238912677226 2 79.342869764438149 2.5499373647110675 2 13.649629468073787 0.7 2 12.491088724739727 7.7775936723594103 2 26.096799311644293 7.9061666868954736 2 30.078561180275408 6.1990195496956186 2 31.742177064542659 4.9769064917955737 2 34.578225987630184 7.5422395477577044 2 40.285020643450117 7.2243241368871232 2 44.887400692087418 5.2512464525002827 2 62.288179392039837 3.4646706411483219 2 63.386267436551996 2.1300561438797172 2 72.492645273345474 6.472287026796308 2 74.70603886105809 8.9686633688253803 2 78.551651826803308 2.9387993185969123 2 81.138925228776571 8.648810327719163 2 16.753446220857491 3.4192015853705167 2 27.235486570054757 3.4609072325900292 2 29.471015480110562 3.2576943916615759 2 41.198224035235548 5.2984780662167488 2 62.650563388466217 8.3068373290171991 2 68.157393923249842 6.9387744521546599 2 67.454563522788462 1.7325282753422926 2 78.10148725369146 7.0169819401822657 2 10.379813427065288 3.3925566867538501 2 14.696228934679917 0.7 2 17.568898871147159 3.8533707970242888 2 28.462663270965912 3.8899137818026146 2 28.98329278977452 5.8734360902500162 2 64.303166320739379 2.1532677470545161 2 66.517020988454234 1.8255658083077086 2 72.810177531537178 2.2321087184177437 2 77.923578291496653 0.7 2 8.1380465161007454 5.0361910912393668 2 14.771187458364514 5.2210018619937335 2 29.970593212024951 2.3278970976749145 2 32.192111331981835 4.1615807380215566 2 44.249735782378089 6.2353111189626143 2 61.886876766752657 7.2656996790335739 2 69.69994789166887 5.5992552663671606 2 68.828063809799374 10.07324568145469 2 70.583916471216327 5.4281377328609377 2 71.451043787686402 3.5851580503974163 2 76.326701860215607 3.8333364903878966 2 80.047767157805339 9.1996540483279734 2 7.4678364950369511 0.7 2 11.115533706992041 2.4327475954223376 2 13.748231802445599 5.0420750205086975 2 16.679953116331571 9.9493969569651384 2 23.837284360383403 6.257945525101154 2 31.202014336652397 6.4332947287497602 2 42.216098164780817 4.7014881517993485 2 62.37056277517194 2.4061638803334922 2 63.681162653292944 0.7 2 76.090142316049253 5.2457972688806755 2 76.129855260858832 9.6707052764107644 2 78.461049134718536 1.7575209823967517 2 80.147707971416295 8.0242273085055924 2 6.8764224748052127 5.1485084699734118 2 14.586293233448828 4.0685331861076746 2 27.047146109401432 4.5338222429939172 2 35.535074058466613 0.7 2 41.523191309943904 3.9393670225992392 2 63.756067272356958 7.0460697751674672 2 68.829552069034676 7.7415179928321356 2 69.425209796782354 2.1788173017516415 2 72.129552839046852 2.5249225702274027 2 74.563609257326092 0.7 2 77.711349827348116 3.9521505337765506 2 81.223141223979439 2.3970570732208025 2 8.1968327655455795 1.3814592946615849 2 13.432575784603324 1.7281236706157652 2 12.972694011387858 10.07787172667493 2 15.886531140744019 5.7087274608484959 2 23.721731896606641 3.1541328642581901 2 28.072794316924767 4.8302205182081241 2 64.223976079123432 3.118391274454531 2 65.252838392068682 2.3624338678406218 2 71.432137465689735 9.0890072375412121 2 72.134023410465986 5.5705346295604778 2 80.553565290807683 0.7 2 10.545432762623062 4.4436709128227863 2 13.915849783575865 6.1790066003115696 2 32.012803780994673 2.1801365525142367 2 31.852210183475375 3.177049254368232 2 41.198077553590011 0.7 2 42.134481059507905 3.0878570160911649 2 62.908094349505483 7.1329065057750878 2 67.74192957523401 2.7215897854327666 2 70.586797419760202 3.516236626327681 2 70.128538253402908 2.5085031870547114 2 74.768666616701609 2.9245419994763258 2 79.259418303278593 6.6936356857048462 2 78.823598156399839 3.7125327784975806 2 92.759420956023064 5.3099207097909646 2 13.095488495423091 6.9281681229220915 2 30.798236090881954 7.4270516617421576 2 75.658248090159148 6.3379284769707791 2 74.644259968202661 7.9232257910290764 2 75.705645866487544 2.733163005793164 2 26.26294919014866 2.405647125238513 2 64.502655723876003 7.5320801179061849 2 65.945782183594076 7.9503348658950159 2 77.5595354358029 5.1105992763927288 2 12.01153901157473 2.1475901255567447 2 28.383230125083291 8.294153201447573 2 65.723305368731374 4.727694966367074 2 64.893549853466311 3.7302822021641093 2 9.047563408311504 7.7631752214727108 2 13.04032321089317 8.9036442287659305 2 33.127787430084155 4.8370491826875535 2 61.358758082698529 4.1559070022781617 2 68.842633627937417 6.0417345035551779 2 70.617967055695885 4.5718539916691139 2 73.785723044241308 2.6511453079779757 2 79.159757879210375 7.5498441192575472 2 </DataArray>
</Points>
<Cells>
<DataArray Name="connectivity" format="ascii" type="Int32">0</DataArray>
<DataArray Name="offsets" format="ascii" type="Int32">0</DataArray>
<DataArray Name="types" format="ascii" type="UInt8">1</DataArray>
</Cells>
<PointData>
<DataArray Name="Points" NumberOfComponents="3" format="ascii" type="Float32">27.054573672208139 0.7 2 64.682116615307265 10.971910772264483 2 67.39526025109366 0.7 2 72.494822609560529 8.9363752161085532 2 71.719321621340796 6.8578634249308248 2 73.672720649724511 0.7 2 15.039663078460325 6.350066868881731 2 31.72780283034691 9.4670469069652814 2 72.676712861798364 7.6992058478263257 2 67.262628901051073 6.9079857378187883 2 28.257967697571097 2.9747242187518914 2 72.298231185005577 3.4926999320544567 2 71.370419342635614 5.7036828617236717 2 76.86239844469533 4.5972054020267148 2 80.869320763525494 9.8602826101164052 2 11.3232818196935 7.4769026560934382 2 27.873229574088224 9.4547622547729375 2 30.669228236052081 8.6568055685690233 2 40.231026204583983 6.0523983271668866 2 71.643509308493364 7.9546133386027718 2 73.57148783212331 8.4204714025129341 2 76.659629237103175 5.9500433770309602 2 76.976691401656964 0.7 2 28.870622706391135 2.2277859376730165 2 61.055226278362511 3.4756770481023844 2 65.023733541284045 8.3570958056855034 2 69.375701448321038 6.8506789951549978 2 75.854711202604875 11.012877465967758 2 77.547452831446449 6.1977140432162949 2 11.42050576948386 3.5925071806049358 2 14.220985188789468 10.183851201877976 2 27.224039388660525 8.374573581007267 2 30.824535920290419 5.326215097771315 2 35.498354363408282 8.2775135334855179 2 63.266584803640662 3.3621112541650024 2 66.62479305052841 0.7 2 69.098395839239089 8.8825012868586128 2 75.043440749799259 10.038455513754819 2 10.265472386592714 8.2812377340031915 2 15.472507155457988 9.9228732481600641 2 25.015228338412545 8.4675334836270864 2 30.917533412529327 2.435288455886309 2 61.310341183733286 8.1352272047549388 2 68.524420098357268 2.2820638448827699 2 63.802795402582433 8.5235328781785267 2 71.578715578087454 4.5081561741719787 2 73.733850350166577 1.7305625666969167 2 79.717894843752475 10.580238912677226 2 79.342869764438149 2.5499373647110675 2 13.649629468073787 0.7 2 12.491088724739727 7.7775936723594103 2 26.096799311644293 7.9061666868954736 2 30.078561180275408 6.1990195496956186 2 31.742177064542659 4.9769064917955737 2 34.578225987630184 7.5422395477577044 2 40.285020643450117 7.2243241368871232 2 44.887400692087418 5.2512464525002827 2 62.288179392039837 3.4646706411483219 2 63.386267436551996 2.1300561438797172 2 72.492645273345474 6.472287026796308 2 74.70603886105809 8.9686633688253803 2 78.551651826803308 2.9387993185969123 2 81.138925228776571 8.648810327719163 2 16.753446220857491 3.4192015853705167 2 27.235486570054757 3.4609072325900292 2 29.471015480110562 3.2576943916615759 2 41.198224035235548 5.2984780662167488 2 62.650563388466217 8.3068373290171991 2 68.157393923249842 6.9387744521546599 2 67.454563522788462 1.7325282753422926 2 78.10148725369146 7.0169819401822657 2 10.379813427065288 3.3925566867538501 2 14.696228934679917 0.7 2 17.568898871147159 3.8533707970242888 2 28.462663270965912 3.8899137818026146 2 28.98329278977452 5.8734360902500162 2 64.303166320739379 2.1532677470545161 2 66.517020988454234 1.8255658083077086 2 72.810177531537178 2.2321087184177437 2 77.923578291496653 0.7 2 8.1380465161007454 5.0361910912393668 2 14.771187458364514 5.2210018619937335 2 29.970593212024951 2.3278970976749145 2 32.192111331981835 4.1615807380215566 2 44.249735782378089 6.2353111189626143 2 61.886876766752657 7.2656996790335739 2 69.69994789166887 5.5992552663671606 2 68.828063809799374 10.07324568145469 2 70.583916471216327 5.4281377328609377 2 71.451043787686402 3.5851580503974163 2 76.326701860215607 3.8333364903878966 2 80.047767157805339 9.1996540483279734 2 7.4678364950369511 0.7 2 11.115533706992041 2.4327475954223376 2 13.748231802445599 5.0420750205086975 2 16.679953116331571 9.9493969569651384 2 23.837284360383403 6.257945525101154 2 31.202014336652397 6.4332947287497602 2 42.216098164780817 4.7014881517993485 2 62.37056277517194 2.4061638803334922 2 63.681162653292944 0.7 2 76.090142316049253 5.2457972688806755 2 76.129855260858832 9.6707052764107644 2 78.461049134718536 1.7575209823967517 2 80.147707971416295 8.0242273085055924 2 6.8764224748052127 5.1485084699734118 2 14.586293233448828 4.0685331861076746 2 27.047146109401432 4.5338222429939172 2 35.535074058466613 0.7 2 41.523191309943904 3.9393670225992392 2 63.756067272356958 7.0460697751674672 2 68.829552069034676 7.7415179928321356 2 69.425209796782354 2.1788173017516415 2 72.129552839046852 2.5249225702274027 2 74.563609257326092 0.7 2 77.711349827348116 3.9521505337765506 2 81.223141223979439 2.3970570732208025 2 8.1968327655455795 1.3814592946615849 2 13.432575784603324 1.7281236706157652 2 12.972694011387858 10.07787172667493 2 15.886531140744019 5.7087274608484959 2 23.721731896606641 3.1541328642581901 2 28.072794316924767 4.8302205182081241 2 64.223976079123432 3.118391274454531 2 65.252838392068682 2.3624338678406218 2 71.432137465689735 9.0890072375412121 2 72.134023410465986 5.5705346295604778 2 80.553565290807683 0.7 2 10.545432762623062 4.4436709128227863 2 13.915849783575865 6.1790066003115696 2 32.012803780994673 2.1801365525142367 2 31.852210183475375 3.177049254368232 2 41.198077553590011 0.7 2 42.134481059507905 3.0878570160911649 2 62.908094349505483 7.1329065057750878 2 67.74192957523401 2.7215897854327666 2 70.586797419760202 3.516236626327681 2 70.128538253402908 2.5085031870547114 2 74.768666616701609 2.9245419994763258 2 79.259418303278593 6.6936356857048462 2 78.823598156399839 3.7125327784975806 2 92.759420956023064 5.3099207097909646 2 13.095488495423091 6.9281681229220915 2 30.798236090881954 7.4270516617421576 2 75.658248090159148 6.3379284769707791 2 74.644259968202661 7.9232257910290764 2 75.705645866487544 2.733163005793164 2 26.26294919014866 2.405647125238513 2 64.502655723876003 7.5320801179061849 2 65.945782183594076 7.9503348658950159 2 77.5595354358029 5.1105992763927288 2 12.01153901157473 2.1475901255567447 2 28.383230125083291 8.294153201447573 2 65.723305368731374 4.727694966367074 2 64.893549853466311 3.7302822021641093 2 9.047563408311504 7.7631752214727108 2 13.04032321089317 8.9036442287659305 2 33.127787430084155 4.8370491826875535 2 61.358758082698529 4.1559070022781617 2 68.842633627937417 6.0417345035551779 2 70.617967055695885 4.5718539916691139 2 73.785723044241308 2.6511453079779757 2 79.159757879210375 7.5498441192575472 2 </DataArray>
<DataArray Name="forces" NumberOfComponents="3" format="ascii" type="Float32">-0.081880130563721523 -0.5048341838936492 0.0 -0.03790501316099798 0.15082443917514965 0.0 -0.0063111492989775808 -0.55453336594444669 0.0 -0.0017759712936520899 0.085296394521387819 0.0 0.004962787480696524 0.10513693324060031 0.0 0.030604697675695097 -0.62717779555972675 0.0 0.029916101070397577 0.11843339668984199 0.0 -0.016430420167197396 0.10904583425912671 0.0 0.0069825128817557723 0.090681261961536488 0.0 -0.013953942464477898 0.26734729034969174 0.0 -0.023140219876058521 -0.0061642644443312133 0.0 -0.0033725607542965802 0.022718930963781438 0.0 -0.0015159473866465656 0.067622017805473375 0.0 0.027730853088958007 0.0045746661915984088 0.0 0.064142321862058427 0.15514635814200484 0.0 -0.034274745433908987 0.089232397257256263 0.0 -0.00080684170782058251 0.10046070423022457 0.0 0.017668520798456482 0.073542055574105106 0.0 0.040644921666664814 0.031763522449181042 0.0 -0.01683381762545566 0.099169962313308962 0.0 0.019347234204034669 0.11717276711458122 0.0 0.052205225489287993 0.079576320561877453 0.0 0.050531478605638891 -0.57899957261361246 0.0 0.019230255605191399 0.010942704136272838 0.0 -0.12058324620763691 0.036781626517414345 0.0 -0.03513433823011574 0.10390718571812196 0.0 -0.0064808794023352989 0.090335039429413511 0.0 -0.046999000007901942 0.13089925817976439 0.0 0.076136156336180927 0.12411834400772875 0.0 -0.0021174685882753841 0.085215714267818224 0.0 -0.022261774554064195 0.090976299548927372 0.0 -0.013138989571621296 0.10914027776243651 0.0 -0.032813202514059697 0.044751979254850638 0.0 0.046425903613283331 0.032541472759481452 0.0 -0.043166920120099983 0.040111330673128623 0.0 0.0042796394858722296 -0.537744279668258 0.0 -0.0014426621782585025 0.11830683637847894 0.0 -0.020807975599264297 0.15987002433345637 0.0 -0.058995324216444447 0.052146603998952469 0.0 0.017344278093272991 0.15457797358701547 0.0 -0.025981282552867246 0.12445254814490322 0.0 0.064449802777689497 -0.054837678620251573 0.0 -0.050621998629447544 0.097535556435279697 0.0 -0.012292798121792431 -0.0103631284752983 0.0 -0.035915411412741093 0.094060146536428413 0.0 0.0092436568920831741 0.065109443267458919 0.0 0.04745930388313379 0.0084912104879521499 0.0 0.096764362231795631 0.16047315555072542 0.0 0.028188622051272205 0.020190975202937111 0.0 0.0060810347112328494 -0.51183244326777055 0.0 -0.014164581408984606 0.054794244256304303 0.0 -0.019743628590424778 0.12225274097993982 0.0 0.0084356285208091186 0.097953600054789786 0.0 -0.015151190627864906 -0.019693623565280403 0.0 0.0078693472607364034 0.076243567043218358 0.0 0.0028174990535919427 0.046116910693490193 0.0 0.011631679569773234 0.046400831868391404 0.0 -0.053812471854786353 0.045589809570548701 0.0 -0.038028654295918701 0.018273428974656662 0.0 0.0041588411512847312 0.067190281447132516 0.0 0.047397836614036182 0.13324528605645475 0.0 0.025950240581477185 0.041238249197354859 0.0 -0.013734338903868659 0.12380991300048581 0.0 0.041561588991020054 0.063351646565971143 0.0 -0.050828660459733666 0.023195699678307202 0.0 -0.040241774167615818 0.062789199578143995 0.0 0.039178513734708709 0.016742989166916966 0.0 -0.052913512556835671 0.11419733036941256 0.0 0.0027957086684345656 0.15316448201996269 0.0 -0.021829710717938711 0.050914170437167394 0.0 0.047039467882813629 0.16180943175405615 0.0 -0.0060745088350119547 0.040124664886395101 0.0 0.035443429223101251 -0.57092395534940676 0.0 0.055793839068650819 0.060557376986533296 0.0 -0.089331326262672817 0.030906297816188977 0.0 0.025746249146213832 0.11261001613788288 0.0 -0.025704133822424258 -0.014667323906891627 0.0 -0.025627178032911861 0.016584687012905962 0.0 0.013987237296147759 -0.0056329204614101736 0.0 0.061122554686827701 -0.52296162083324405 0.0 -0.013647417778036797 0.060678171347325227 0.0 0.019344216131420289 0.077216699758565752 0.0 0.022070523853506462 0.05022303943010141 0.0 0.09331083028040868 0.0036725472027824557 0.0 0.024066005314137998 0.094168244005458382 0.0 -0.031266953188630597 0.091267291029138276 0.0 -0.04996190423614099 0.033590073218762659 0.0 0.020410043030698363 0.13046586709145749 0.0 -0.033750568953650743 0.04636130387253401 0.0 0.0081474883029661466 0.045669863331154859 0.0 0.0048229258718259435 0.023917208871130302 0.0 0.05743171021546694 0.11159399834416764 0.0 -0.18411035826895933 -0.46849640125365988 0.0 -0.00025055861522493839 0.050041247918033105 0.0 0.0046528985194500758 0.032383019284515979 0.0 0.044588534420068535 0.13512517838606836 0.0 -0.009992901143521693 0.10134225199567279 0.0 0.022655487594448909 0.04459520116171023 0.0 0.03170697719035237 0.016453907823283452 0.0 -0.017936141957317464 0.017374654330945732 0.0 -0.051504061512952504 -0.4342590541215734 0.0 0.089106456142630311 0.02961775452482901 0.0 -0.018025002520693667 0.11228477588074695 0.0 0.05869164334721122 0.017934654760432323 0.0 0.029480552796565918 0.070678595701391095 0.0 -0.032396225275397678 0.06982615855993797 0.0 0.014457497471351388 0.051809550424870648 0.0 0.035148832495458027 0.080366513492638292 0.0 0.075496790243224185 -0.4397922708550937 0.0 -0.003735355928226658 0.034139960624293864 0.0 -0.0015812152174807803 -0.040473144246006676 0.0 -0.01557873884451183 0.13856489278264328 0.0 -0.0020880288012262022 0.020242579246992312 0.0 0.010788248129411926 0.010639467429934851 0.0 0.03438517440090505 -0.71666653693748139 0.0 0.02222544168508989 0.0482702541356472 0.0 0.094089702822319182 0.060538804176192368 0.0 -0.097002337943586203 -0.049376371385502785 0.0 -0.070178216564551588 0.0079661739074737975 0.0 -0.029765611123523147 0.10635658685220262 0.0 0.0032976379580920145 0.055178978487885597 0.0 -0.025321919169535329 0.12553488077622618 0.0 0.041127226710310438 0.11908430832367509 0.0 -0.040800210407432091 -0.013117288883313982 0.0 -0.018482107501695544 0.0043804356303175918 0.0 -0.0092263263958321101 0.12069575652101344 0.0 0.012621609024000585 0.089638046990516029 0.0 0.019792956080370849 -0.65813357392109018 0.0 0.018155334782712751 0.076684234789531652 0.0 0.04135366018425235 0.058881132425621763 0.0 0.09877331816062497 -0.004759657360004943 0.0 0.0046116343997859022 -0.00060206440275545337 0.0 0.058169063173178326 -0.39550365752890637 0.0 -0.013165855680880689 0.0013426641718722321 0.0 -0.0097803141223520296 0.14375534271382368 0.0 0.0070902964426858284 0.084224420342170814 0.0 -0.0024012104591235039 0.047571963083562263 0.0 -0.0043109314410562094 0.028403410637387383 0.0 -0.021081837795413783 0.047674640277053273 0.0 0.025769840797535401 0.087992086658224222 0.0 0.020954843872472539 0.044680578960195685 0.0 0.04238547821473776 0.037780236427535446 0.0 0.084188051969650068 0.092409325521082442 0.0 0.0080820193431594689 0.041314979842737465 0.0 0.042353977467305667 0.038294195124359554 0.0 0.016292008480588097 0.13183579410653889 0.0 -0.002975397854253603 0.07081379687297773 0.0 -0.070649169326340466 -0.050118004508501096 0.0 -0.049742437214602808 0.10267213801627434 0.0 0.0051697532943120739 0.1359703531394171 0.0 -0.013465248574487502 0.084336711978909074 0.0 -0.011930768249255631 -0.0074231565126257198 0.0 -0.0027971371828890979 0.11312694777671284 0.0 -0.10047471167621697 0.028807672530533721 0.0 -0.068247133197576193 -0.022739740084674831 0.0 -0.092912120835592721 0.064891979506508796 0.0 -0.037982311632094298 0.076754121195343777 0.0 0.030818005372147489 0.070641384067499605 0.0 -0.0077284844916923334 0.0077077083484619613 0.0 -0.019723466049964278 0.096154992489232649 0.0 0.0020293509469168115 0.049696881992406294 0.0 0.0056893116935120003 0.028056446498416321 0.0 0.057144248066920492 0.11076821021917305 0.0 </DataArray>
<DataArray Name="radii" format="ascii" type="Float32">0.7 0.7 0.7 0.7 0.7 0.7 0.7 0.7 0.7 0.7 0.7 0.7 0.7 0.7 0.7 0.7 0.7 0.7 0.7 0.7 0.7 0.7 0.7 0.7 0.7 0.7 0.7 0.7 0.7 0.7 0.7 0.7 0.7 0.7 0.7 0.7 0.7 0.7 0.7 0.7 0.7 0.7 0.7 0.7 0.7 0.7 0.7 0.7 0.7 0.7 0.7 0.7 0.7 0.7 0.7 0.7 0.7 0.7 0.7 0.7 0.7 0.7 0.7 0.7 0.7 0.7 0.7 0.7 0.7 0.7 0.7 0.7 0.7 0.7 0.7 0.7 0.7 0.7 0.7 0.7 0.7 0.7 0.7 0.7 0.7 0.7 0.7 0.7 0.7 0.7 0.7 0.7 0.7 0.7 0.7 0.7 0.7 0.7 0.7 0.7 0.7 0.7 0.7 0.7 0.7 0.7 0.7 0.7 0.7 0.7 0.7 0.7 0.7 0.7 0.7 0.7 0.7 0.7 0.7 0.7 0.7 0.7 0.7 0.7 0.7 0.7 0.7 0.7 0.7 0.7 0.7 0.7 0.7 0.7 0.7 0.7 0.7 0.7 0.7 0.7 0.7 0.7 0.7 0.7 0.7 0.7 0.7 0.7 0.7 0.7 0.7 0.7 0.7 0.7 0.7 0.7 0.7 0.7 0.7 0.7 0.7 0.7 0.7 </DataArray>
</PointData>
<CellData/>
</Piece>
</UnstructuredGrid>
</VTKFile>
