<?xml version="1.0" ?>
<VTKFile byte_order="LittleEndian" type="UnstructuredGrid" version="0.1">
<UnstructuredGrid>
<Piece NumberOfCells="0" NumberOfPoints="284">
<Points>
<DataArray NumberOfComponents="3" format="ascii" type="Float32">26.583318404550511 0.7 2 64.59537765760372 11.805082745028789 2 67.57928250137897 0.7 2 72.919509203609323 9.0036931432331784 2 71.80757892920866 7.0503677176767141 2 74.112582741008225 0.7 2 14.52423814564057 6.5612502746538892 2 31.918959354100917 9.3384333992973492 2 72.791903830961971 7.7444766635296203 2 67.175763901379497 6.6523451566419531 2 28.342500511831709 3.4567614292525031 2 71.952345304536721 4.1825397707737428 2 71.240483191617628 5.8557640107387963 2 76.72961609915501 4.635838790192647 2 80.756173533064597 10.260788370042134 2 11.501398008825916 7.5238510198217972 2 27.731189803060872 9.2531602532644648 2 30.743992880373419 8.8889654900077097 2 40.754948403359911 6.3483760331039543 2 72.020615282934301 8.2715176661269965 2 73.618216138986995 8.2513823549585119 2 76.734707997479958 6.1306598113387638 2 77.283909603670878 0.7 2 28.607857678128365 2.4780493065239235 2 60.997318108368212 3.784997724690887 2 64.963215128317415 8.1516096068532562 2 69.056405398638915 6.9186419048728958 2 75.904946156927878 11.312583934797289 2 77.739097106186236 6.5610930119958502 2 11.759734367118279 3.7822964491325131 2 14.23957488496035 10.307551482654082 2 27.284115802038716 8.2398716753212486 2 30.808945496082281 5.5335382313181549 2 35.454603113264355 8.564996671315658 2 63.13534886691442 3.3890594449489471 2 66.918080556221597 0.7 2 68.480660496243743 9.0906111780806391 2 75.064161022988671 10.409866545069177 2 10.550950639656868 7.7836052547980499 2 15.45653875556285 10.467435917643662 2 24.795815261431848 9.0752964908866751 2 31.128302472938888 2.5414021129812938 2 61.499975786604779 8.1701263962572792 2 68.155876438515136 2.8852041081839199 2 63.675084147267732 8.3455961344522773 2 71.52104410656429 4.9457008065363528 2 74.267553042970206 1.8253223681225432 2 79.727832126177802 10.812688995540741 2 78.77215660428935 2.4453414573496448 2 13.604516690006095 0.7 2 12.593298681024528 7.9585730527143248 2 26.421689695519429 8.0029954733776769 2 29.889035640594759 6.3609500787784778 2 31.731722206866447 5.1197092603794587 2 34.428926588970441 7.9764718566522701 2 40.82186841259032 7.30496396604339 2 44.548421441445441 5.6578301304106891 2 62.114097378827402 3.7912809456525238 2 63.402244014421193 2.0312645865485099 2 72.816988931856784 6.7510773882288273 2 75.185573902780575 9.2951295077537601 2 78.319365563182913 3.141279257583792 2 80.878633228719366 9.2115714372945643 2 16.478501504600686 3.2711393335604479 2 27.037042534232537 3.6376707074839207 2 29.311687553566873 3.5970372776080346 2 41.667249710082842 5.7329678082428916 2 62.68067102534657 8.6255743783456627 2 68.062306840896596 6.8265196933733128 2 66.743901938499206 1.7746169629115531 2 78.083181035083342 7.666334682211053 2 10.316896390331941 3.6227750605046376 2 14.762358948573082 0.7 2 17.465594549631639 4.0120887213976282 2 28.204182269390433 4.1707993934561154 2 28.715966847744046 6.2154681878060059 2 63.80533930367465 2.6530525599210608 2 66.125856060557467 2.4152513676273379 2 73.202894299353247 2.4310784147298232 2 77.983657991601532 0.7 2 8.12532822799907 5.0476574401129852 2 14.537107389329133 5.5584706098121517 2 30.236460083632132 2.8141926633915633 2 32.192600636008294 4.2883049064766849 2 44.447576013674656 6.5941914085491478 2 62.130279122764144 7.5144337331201418 2 69.37446255496566 5.4533832313967876 2 68.513350241177733 10.198333796967511 2 70.241267135474686 5.4678606140180994 2 71.224998855214409 3.7973306152417181 2 75.914385763583667 4.1400958853675176 2 79.719056809915628 9.6830535123026618 2 6.9331747048038324 0.7 2 11.228864530528428 3.2008804625308289 2 13.541896826202342 5.4941004924601913 2 16.574381616084889 10.599301768519604 2 24.018039885357577 6.4159792428913391 2 30.912139666082616 6.4999063003832642 2 42.345588434099078 4.8194808963622924 2 62.615328492722398 2.8310761552742125 2 63.679564351717922 0.7 2 76.252244001063659 5.397565381897854 2 76.167955146580354 10.068950168871899 2 78.251969657902976 1.7131150852539117 2 80.001313015341083 8.5753324258407169 2 7.0702458180709957 5.7896095179127691 2 14.019289822657521 4.335663295021547 2 27.293727962984917 4.5108140965199022 2 35.998315216617065 0.7 2 41.663090240195459 4.3422205754057783 2 63.526938690038257 6.6337324054601146 2 68.547048395058184 7.8549679156152612 2 69.022204202100014 3.1112076307115197 2 72.529992391313442 2.4831275203099419 2 74.723914490852636 0.7 2 77.919186546712055 4.3506779093794252 2 80.958261042795044 2.9208648382168443 2 7.8150698806621151 0.7 2 13.314848864318419 2.0732981141961502 2 13.09581591713401 10.351488406840444 2 15.671180832375022 5.9036565829832277 2 23.741042436228692 3.5132428322001572 2 28.109739694050457 5.1889227743952162 2 64.421644286754656 3.3222058051628709 2 65.440811336049507 2.8421083067610531 2 72.092870014655077 9.510636421509636 2 72.013946014561071 6.0578337855457525 2 80.696184588348046 0.7 2 10.94764995301249 4.4319238537511358 2 13.621312239496993 6.431414450510589 2 31.893624156391674 2.5895116739320994 2 32.033530528729784 3.3993794105785708 2 41.432184885517387 0.7 2 42.245514249344666 3.6918879463692766 2 63.035585235941028 7.475914522837253 2 67.198693025514132 2.7632059621985499 2 70.252088160243133 4.1388515572202706 2 69.936591787371057 3.3771592541260684 2 74.980614102187616 3.3257047797281611 2 78.944957372073077 6.7949312327231901 2 78.641555390563809 4.0495938031542913 2 92.796509517038729 5.6771944007453126 2 13.622953496260632 7.4696614684415303 2 30.727909789853584 7.4307962771445428 2 75.584619641094761 6.3098800090201381 2 74.641368067944995 8.229239591424454 2 76.032624421255591 3.2962638110147982 2 26.076126300398613 2.6085541265684582 2 64.197769869716552 7.6044991029436195 2 66.067323866925562 7.9761530281136279 2 77.417149543400569 5.2198460267017071 2 12.090723522364305 2.5041595531099481 2 28.401448609295628 8.5653144202988774 2 65.408491979451483 5.2885960218104717 2 64.745330168777798 4.2523663154051912 2 9.4843958289106283 7.8769637584876548 2 12.904061617922657 9.2122370067554833 2 32.897143122293627 5.238290828823648 2 61.90069658707548 4.608291147632718 2 68.71317108334209 5.9577137863281679 2 70.609289724866429 4.7759706274100626 2 73.841922132612893 2.9256089131118714 2 79.228211069047077 7.6904808712940476 2 6.1027461429405649 7.7879605819605278 2 9.9750894387245594 0.7 2 15.485606800803337 6.7544715415765157 2 20.421865695445057 5.651500984397642 2 25.279565277678007 6.2611349978639481 2 32.018160841500624 12.045753477046977 2 40.062544878999574 7.7425301477947919 2 62.001499436921321 11.206325786708048 2 61.49267345974927 2.9356717460143971 2 66.257303764849581 0.7 2 68.091921950865796 13.203957275415101 2 70.966974873785517 11.495969191473668 2 79.766364784420148 6.2686451116290645 2 7.1308999233353703 7.001609733800457 2 16.66299086041624 4.1134826165563423 2 21.026787655464375 2.5787016685044759 2 29.35075207069934 2.656361994576943 2 33.993055032960903 0.7 2 38.43504993341606 5.1804563934441816 2 44.802133898890503 3.1493370359461528 2 48.524101227830919 4.343474124885236 2 65.492314466466667 14.722622220761133 2 68.988701711628124 0.7 2 73.550835679404329 1.649309188519738 2 79.148240096798489 11.778852907929855 2 75.466454844920278 0.7 2 81.503009832579608 0.7 2 8.0851974021175206 3.7872786655923374 2 16.592914505375106 6.2897984229181514 2 24.469402661639403 4.2794297262651071 2 27.164520748322889 10.141766188787193 2 32.965887215625891 9.1743484164996811 2 41.357166003779348 10.220990068677194 2 50.481539505375864 5.6854470010729754 2 59.277757573239548 11.046330011955828 2 62.75785999474828 9.7407657578257911 2 67.343789488022395 10.612829628881602 2 71.088091248803963 8.9977882248642693 2 74.31475103720048 5.8284163329123944 2 74.1869554611051 9.2047212620623675 2 81.272544603906724 1.705349801211075 2 5.1921820434602104 4.1485745546300974 2 10.008982376899411 8.8684164967547314 2 20.09949339350845 4.7920098376364679 2 30.144717302254627 1.9759943102138757 2 38.00430502363416 3.8057016162778754 2 41.07163797618098 1.4711771801328519 2 45.740668318422237 3.556084215238609 2 48.919475095595061 3.1551182601149539 2 60.634803993829614 0.7 2 66.200508606363258 10.454186537129742 2 69.833324632441787 0.7 2 81.746960171001291 2.4689361504520746 2 93.133441461254677 3.5625834603907127 2 1.8024535247351803 8.7456962139057488 2 4.2453230612705513 6.33472017802465 2 9.0763961926960057 3.2849257796313807 2 11.039966377827412 2.4011315134364541 2 15.116241586642131 9.3817523171572432 2 17.961015754765373 9.1595868772950269 2 27.533158602479027 5.7625317723818759 2 28.36839356980386 10.266392737505504 2 30.896382301891613 12.1987500135529 2 43.53218146890552 10.260371562724712 2 59.255680028924814 9.835969327629126 2 62.081948458650785 2.2838548909262211 2 64.719009023958506 2.3895549530500948 2 71.120778014974647 7.9046656267682058 2 71.38713345913574 10.230408511998231 2 92.274709481657595 3.5907169231932108 2 95.303605961592851 7.1019291413577479 2 0.7 2.9174208436106706 2 3.7691542723132301 0.7 2 7.1502173412437049 9.2451019511677934 2 14.017659064088603 3.1791306556655172 2 34.351062341043033 14.873071388930086 2 27.408757473373488 0.7 2 34.142056496103208 1.8728069967398158 2 36.080900314365465 2.0094113279272428 2 43.992883590995262 2.6810065099236993 2 47.315365965657442 6.8946192916378957 2 67.628023228091308 1.9896395551429689 2 73.335349341099942 0.7 2 78.63590510276515 10.382096111414276 2 76.233481655749614 2.3912558888928528 2 82.093153048634392 3.5546793439984143 2 95.92291386113429 7.7427381212208557 2 95.997881437519752 2.4582317230510156 2 0.7 8.7225702437601669 2 6.909983867068231 8.1605840594059202 2 10.339147896583999 5.158756484902205 2 10.463549775117905 12.174314317815114 2 16.283022570860552 5.0433799371874457 2 23.252985136174857 5.3284336536024162 2 28.180448809962751 13.060667985224898 2 33.135561144880036 12.365918893410898 2 42.439976191012079 9.903775662836356 2 44.125185697147721 11.415971865915138 2 50.675372201547077 4.5827931939256041 2 63.913615473377916 9.2840959814984387 2 66.247698321188096 13.334971204174746 2 69.430187828646126 11.24672469835544 2 72.519427988199737 3.4947008537878528 2 73.309027909157834 12.562957784862304 2 78.725638805469586 0.7 2 93.248573948062486 0.79507281240494276 2 2.0243167636444008 3.1469244664074085 2 5.0621997510277712 2.8814141834748868 2 15.664234954995115 2.3667303987411281 2 21.522416762130881 4.1876019431533669 2 26.849904539030625 1.6897592922273292 2 26.216231595205201 11.026003642462411 2 33.991968603894577 11.766965774658894 2 33.16216041355807 0.7 2 42.49760145965643 0.7 2 43.743638624654295 4.0586028161130683 2 59.976737417958262 3.6924122659728527 2 64.994856846167849 10.650032890909461 2 71.852111992024675 2.7932315253956972 2 79.436516086518324 3.1996832274366507 2 92.797560895489184 2.4204568273495992 2 </DataArray>
</Points>
<Cells>
<DataArray Name="connectivity" format="ascii" type="Int32">0</DataArray>
<DataArray Name="offsets" format="ascii" type="Int32">0</DataArray>
<DataArray Name="types" format="ascii" type="UInt8">1</DataArray>
</Cells>
<PointData>
<DataArray Name="Points" NumberOfComponents="3" format="ascii" type="Float32">26.583318404550511 0.7 2 64.59537765760372 11.805082745028789 2 67.57928250137897 0.7 2 72.919509203609323 9.0036931432331784 2 71.80757892920866 7.0503677176767141 2 74.112582741008225 0.7 2 14.52423814564057 6.5612502746538892 2 31.918959354100917 9.3384333992973492 2 72.791903830961971 7.7444766635296203 2 67.175763901379497 6.6523451566419531 2 28.342500511831709 3.4567614292525031 2 71.952345304536721 4.1825397707737428 2 71.240483191617628 5.8557640107387963 2 76.72961609915501 4.635838790192647 2 80.756173533064597 10.260788370042134 2 11.501398008825916 7.5238510198217972 2 27.731189803060872 9.2531602532644648 2 30.743992880373419 8.8889654900077097 2 40.754948403359911 6.3483760331039543 2 72.020615282934301 8.2715176661269965 2 73.618216138986995 8.2513823549585119 2 76.734707997479958 6.1306598113387638 2 77.283909603670878 0.7 2 28.607857678128365 2.4780493065239235 2 60.997318108368212 3.784997724690887 2 64.963215128317415 8.1516096068532562 2 69.056405398638915 6.9186419048728958 2 75.904946156927878 11.312583934797289 2 77.739097106186236 6.5610930119958502 2 11.759734367118279 3.7822964491325131 2 14.23957488496035 10.307551482654082 2 27.284115802038716 8.2398716753212486 2 30.808945496082281 5.5335382313181549 2 35.454603113264355 8.564996671315658 2 63.13534886691442 3.3890594449489471 2 66.918080556221597 0.7 2 68.480660496243743 9.0906111780806391 2 75.064161022988671 10.409866545069177 2 10.550950639656868 7.7836052547980499 2 15.45653875556285 10.467435917643662 2 24.795815261431848 9.0752964908866751 2 31.128302472938888 2.5414021129812938 2 61.499975786604779 8.1701263962572792 2 68.155876438515136 2.8852041081839199 2 63.675084147267732 8.3455961344522773 2 71.52104410656429 4.9457008065363528 2 74.267553042970206 1.8253223681225432 2 79.727832126177802 10.812688995540741 2 78.77215660428935 2.4453414573496448 2 13.604516690006095 0.7 2 12.593298681024528 7.9585730527143248 2 26.421689695519429 8.0029954733776769 2 29.889035640594759 6.3609500787784778 2 31.731722206866447 5.1197092603794587 2 34.428926588970441 7.9764718566522701 2 40.82186841259032 7.30496396604339 2 44.548421441445441 5.6578301304106891 2 62.114097378827402 3.7912809456525238 2 63.402244014421193 2.0312645865485099 2 72.816988931856784 6.7510773882288273 2 75.185573902780575 9.2951295077537601 2 78.319365563182913 3.141279257583792 2 80.878633228719366 9.2115714372945643 2 16.478501504600686 3.2711393335604479 2 27.037042534232537 3.6376707074839207 2 29.311687553566873 3.5970372776080346 2 41.667249710082842 5.7329678082428916 2 62.68067102534657 8.6255743783456627 2 68.062306840896596 6.8265196933733128 2 66.743901938499206 1.7746169629115531 2 78.083181035083342 7.666334682211053 2 10.316896390331941 3.6227750605046376 2 14.762358948573082 0.7 2 17.465594549631639 4.0120887213976282 2 28.204182269390433 4.1707993934561154 2 28.715966847744046 6.2154681878060059 2 63.80533930367465 2.6530525599210608 2 66.125856060557467 2.4152513676273379 2 73.202894299353247 2.4310784147298232 2 77.983657991601532 0.7 2 8.12532822799907 5.0476574401129852 2 14.537107389329133 5.5584706098121517 2 30.236460083632132 2.8141926633915633 2 32.192600636008294 4.2883049064766849 2 44.447576013674656 6.5941914085491478 2 62.130279122764144 7.5144337331201418 2 69.37446255496566 5.4533832313967876 2 68.513350241177733 10.198333796967511 2 70.241267135474686 5.4678606140180994 2 71.224998855214409 3.7973306152417181 2 75.914385763583667 4.1400958853675176 2 79.719056809915628 9.6830535123026618 2 6.9331747048038324 0.7 2 11.228864530528428 3.2008804625308289 2 13.541896826202342 5.4941004924601913 2 16.574381616084889 10.599301768519604 2 24.018039885357577 6.4159792428913391 2 30.912139666082616 6.4999063003832642 2 42.345588434099078 4.8194808963622924 2 62.615328492722398 2.8310761552742125 2 63.679564351717922 0.7 2 76.252244001063659 5.397565381897854 2 76.167955146580354 10.068950168871899 2 78.251969657902976 1.7131150852539117 2 80.001313015341083 8.5753324258407169 2 7.0702458180709957 5.7896095179127691 2 14.019289822657521 4.335663295021547 2 27.293727962984917 4.5108140965199022 2 35.998315216617065 0.7 2 41.663090240195459 4.3422205754057783 2 63.526938690038257 6.6337324054601146 2 68.547048395058184 7.8549679156152612 2 69.022204202100014 3.1112076307115197 2 72.529992391313442 2.4831275203099419 2 74.723914490852636 0.7 2 77.919186546712055 4.3506779093794252 2 80.958261042795044 2.9208648382168443 2 7.8150698806621151 0.7 2 13.314848864318419 2.0732981141961502 2 13.09581591713401 10.351488406840444 2 15.671180832375022 5.9036565829832277 2 23.741042436228692 3.5132428322001572 2 28.109739694050457 5.1889227743952162 2 64.421644286754656 3.3222058051628709 2 65.440811336049507 2.8421083067610531 2 72.092870014655077 9.510636421509636 2 72.013946014561071 6.0578337855457525 2 80.696184588348046 0.7 2 10.94764995301249 4.4319238537511358 2 13.621312239496993 6.431414450510589 2 31.893624156391674 2.5895116739320994 2 32.033530528729784 3.3993794105785708 2 41.432184885517387 0.7 2 42.245514249344666 3.6918879463692766 2 63.035585235941028 7.475914522837253 2 67.198693025514132 2.7632059621985499 2 70.252088160243133 4.1388515572202706 2 69.936591787371057 3.3771592541260684 2 74.980614102187616 3.3257047797281611 2 78.944957372073077 6.7949312327231901 2 78.641555390563809 4.0495938031542913 2 92.796509517038729 5.6771944007453126 2 13.622953496260632 7.4696614684415303 2 30.727909789853584 7.4307962771445428 2 75.584619641094761 6.3098800090201381 2 74.641368067944995 8.229239591424454 2 76.032624421255591 3.2962638110147982 2 26.076126300398613 2.6085541265684582 2 64.197769869716552 7.6044991029436195 2 66.067323866925562 7.9761530281136279 2 77.417149543400569 5.2198460267017071 2 12.090723522364305 2.5041595531099481 2 28.401448609295628 8.5653144202988774 2 65.408491979451483 5.2885960218104717 2 64.745330168777798 4.2523663154051912 2 9.4843958289106283 7.8769637584876548 2 12.904061617922657 9.2122370067554833 2 32.897143122293627 5.238290828823648 2 61.90069658707548 4.608291147632718 2 68.71317108334209 5.9577137863281679 2 70.609289724866429 4.7759706274100626 2 73.841922132612893 2.9256089131118714 2 79.228211069047077 7.6904808712940476 2 6.1027461429405649 7.7879605819605278 2 9.9750894387245594 0.7 2 15.485606800803337 6.7544715415765157 2 20.421865695445057 5.651500984397642 2 25.279565277678007 6.2611349978639481 2 32.018160841500624 12.045753477046977 2 40.062544878999574 7.7425301477947919 2 62.001499436921321 11.206325786708048 2 61.49267345974927 2.9356717460143971 2 66.257303764849581 0.7 2 68.091921950865796 13.203957275415101 2 70.966974873785517 11.495969191473668 2 79.766364784420148 6.2686451116290645 2 7.1308999233353703 7.001609733800457 2 16.66299086041624 4.1134826165563423 2 21.026787655464375 2.5787016685044759 2 29.35075207069934 2.656361994576943 2 33.993055032960903 0.7 2 38.43504993341606 5.1804563934441816 2 44.802133898890503 3.1493370359461528 2 48.524101227830919 4.343474124885236 2 65.492314466466667 14.722622220761133 2 68.988701711628124 0.7 2 73.550835679404329 1.649309188519738 2 79.148240096798489 11.778852907929855 2 75.466454844920278 0.7 2 81.503009832579608 0.7 2 8.0851974021175206 3.7872786655923374 2 16.592914505375106 6.2897984229181514 2 24.469402661639403 4.2794297262651071 2 27.164520748322889 10.141766188787193 2 32.965887215625891 9.1743484164996811 2 41.357166003779348 10.220990068677194 2 50.481539505375864 5.6854470010729754 2 59.277757573239548 11.046330011955828 2 62.75785999474828 9.7407657578257911 2 67.343789488022395 10.612829628881602 2 71.088091248803963 8.9977882248642693 2 74.31475103720048 5.8284163329123944 2 74.1869554611051 9.2047212620623675 2 81.272544603906724 1.705349801211075 2 5.1921820434602104 4.1485745546300974 2 10.008982376899411 8.8684164967547314 2 20.09949339350845 4.7920098376364679 2 30.144717302254627 1.9759943102138757 2 38.00430502363416 3.8057016162778754 2 41.07163797618098 1.4711771801328519 2 45.740668318422237 3.556084215238609 2 48.919475095595061 3.1551182601149539 2 60.634803993829614 0.7 2 66.200508606363258 10.454186537129742 2 69.833324632441787 0.7 2 81.746960171001291 2.4689361504520746 2 93.133441461254677 3.5625834603907127 2 1.8024535247351803 8.7456962139057488 2 4.2453230612705513 6.33472017802465 2 9.0763961926960057 3.2849257796313807 2 11.039966377827412 2.4011315134364541 2 15.116241586642131 9.3817523171572432 2 17.961015754765373 9.1595868772950269 2 27.533158602479027 5.7625317723818759 2 28.36839356980386 10.266392737505504 2 30.896382301891613 12.1987500135529 2 43.53218146890552 10.260371562724712 2 59.255680028924814 9.835969327629126 2 62.081948458650785 2.2838548909262211 2 64.719009023958506 2.3895549530500948 2 71.120778014974647 7.9046656267682058 2 71.38713345913574 10.230408511998231 2 92.274709481657595 3.5907169231932108 2 95.303605961592851 7.1019291413577479 2 0.7 2.9174208436106706 2 3.7691542723132301 0.7 2 7.1502173412437049 9.2451019511677934 2 14.017659064088603 3.1791306556655172 2 34.351062341043033 14.873071388930086 2 27.408757473373488 0.7 2 34.142056496103208 1.8728069967398158 2 36.080900314365465 2.0094113279272428 2 43.992883590995262 2.6810065099236993 2 47.315365965657442 6.8946192916378957 2 67.628023228091308 1.9896395551429689 2 73.335349341099942 0.7 2 78.63590510276515 10.382096111414276 2 76.233481655749614 2.3912558888928528 2 82.093153048634392 3.5546793439984143 2 95.92291386113429 7.7427381212208557 2 95.997881437519752 2.4582317230510156 2 0.7 8.7225702437601669 2 6.909983867068231 8.1605840594059202 2 10.339147896583999 5.158756484902205 2 10.463549775117905 12.174314317815114 2 16.283022570860552 5.0433799371874457 2 23.252985136174857 5.3284336536024162 2 28.180448809962751 13.060667985224898 2 33.135561144880036 12.365918893410898 2 42.439976191012079 9.903775662836356 2 44.125185697147721 11.415971865915138 2 50.675372201547077 4.5827931939256041 2 63.913615473377916 9.2840959814984387 2 66.247698321188096 13.334971204174746 2 69.430187828646126 11.24672469835544 2 72.519427988199737 3.4947008537878528 2 73.309027909157834 12.562957784862304 2 78.725638805469586 0.7 2 93.248573948062486 0.79507281240494276 2 2.0243167636444008 3.1469244664074085 2 5.0621997510277712 2.8814141834748868 2 15.664234954995115 2.3667303987411281 2 21.522416762130881 4.1876019431533669 2 26.849904539030625 1.6897592922273292 2 26.216231595205201 11.026003642462411 2 33.991968603894577 11.766965774658894 2 33.16216041355807 0.7 2 42.49760145965643 0.7 2 43.743638624654295 4.0586028161130683 2 59.976737417958262 3.6924122659728527 2 64.994856846167849 10.650032890909461 2 71.852111992024675 2.7932315253956972 2 79.436516086518324 3.1996832274366507 2 92.797560895489184 2.4204568273495992 2 </DataArray>