<?xml version="1.0" ?>
<VTKFile byte_order="LittleEndian" type="UnstructuredGrid" version="0.1">
<UnstructuredGrid>
<Piece NumberOfCells="0" NumberOfPoints="240">
<Points>
<DataArray NumberOfComponents="3" format="ascii" type="Float32">1.52 7.6653456200443335 2 5.7244552855024136 7.2235151413761338 2 8.3913613855057179 1.3600000000000003 2 12.200404493163466 1.44 2 12.214584976513748 7.0623399783123162 2 16.434070737307817 7.8675541797160777 2 19.595510237737354 7.2118221988428486 2 25.073449168475747 8.3435275052900639 2 29.480092714499001 7.5971492022074711 2 29.653505439075118 15.180893628257166 2 33.36203598477649 8.263567889676807 2 34.314222772656272 6.5303125198540162 2 39.49777214718052 9.526086594645486 2 41.906924856620243 7.1456747134949934 2 45.974013383251666 8.5862488355847226 2 48.559868345800581 8.5028467498619662 2 57.731872296366582 9.4460438776699771 2 61.355796206365746 13.904425766138475 2 61.41720838794582 1.3600000000000003 2 65.499607588650079 1.3600000000000003 2 69.306657267095133 15.940430753652732 2 70.411839483628412 7.2186184725993892 2 74.064169647022197 7.4449336637996311 2 71.977194167786678 14.248522717111966 2 75.800521479891756 8.7144865197843107 2 77.704504146443142 2.8899648387869452 2 81.53025414556906 6.0512098414582276 2 84.534002681621999 5.0984042620796446 2 90.355463139370997 5.7676340175413516 2 96.800782411140915 8.336751383562973 2 2.5904673228319699 1.44 2 5.599428906811732 1.44 2 8.331933882629345 6.2329494266870578 2 10.88298006550947 14.862648213506708 2 15.172207961462608 4.6437580852745226 2 14.14991414039315 11.998380092801254 2 18.902821843848745 2.5982905110112604 2 26.127237871564251 4.4629512744983968 2 26.451655194546948 14.041421243806511 2 32.243298971277945 15.155577856193217 2 28.902428085935576 1.3600000000000003 2 35.620511200648885 1.44 2 37.048341816079947 5.5119108920237228 2 40.825692820205759 2.6944806633143639 2 45.766198243142732 1.828230297164374 2 46.724121191156193 4.532931326020849 2 56.243329113119216 1.52 2 60.018234717361111 4.7077945289068053 2 65.883732797927735 7.4532240195666439 2 66.54697956975356 9.8464644886509234 2 64.606772850971296 14.248513381838846 2 68.38409631357041 2.1773878280298939 2 72.731422937533168 1.3600000000000003 2 78.885784247119005 13.279152582401046 2 76.172784799026672 1.3600000000000003 2 79.275624571992054 5.8050926881020084 2 83.101966901404424 1.44 2 82.961443564902595 13.719768649438144 2 93.408034904313936 7.5987386777276082 2 95.613357678564057 4.5694838944498004 2 1.5999999999999999 13.850879001630402 2 5.5013287998248517 12.297397273215099 2 7.4500672704945385 2.1589655714064868 2 12.65318584796562 3.2734664289047894 2 11.378822515272661 9.5450218992083578 2 18.76041518805118 6.282043660890853 2 21.429796008319904 10.438454484388178 2 24.232725390883441 5.7078971109305501 2 27.730953009827381 7.3717683565352798 2 27.281970741829038 12.18281279720742 2 29.141706978000201 4.759710342207284 2 34.535790554375374 10.328248977466616 2 38.912608204865542 8.291162989981089 2 41.388877458161687 9.5436085691580299 2 45.780902765926918 15.505090024275724 2 48.951568743607403 5.6990032988199752 2 58.979447562463974 13.200778507005365 2 61.099117997324136 9.8394049196335427 2 64.179439473151504 5.4657133311834158 2 66.385334126112085 3.4557379732347293 2 68.412591379975652 11.974504295588579 2 70.366901932644055 10.440470934645548 2 72.646432311729626 5.4153646546280125 2 76.311892260815497 13.940463940549913 2 73.312256376527642 10.535249364683461 2 79.987355287528729 2.2991543251450692 2 81.042215497828678 12.451207390490456 2 85.059251112034673 1.52 2 92.524270812177662 1.52 2 96.460421683883666 10.209744660573833 2 1.44 6.4596132860130027 2 5.0902060877212785 4.9789408468781176 2 9.4760347705325785 6.6352605243594027 2 9.4554622903038563 11.117780162224784 2 16.455965581106817 1.52 2 13.846816630735331 8.7886508822746343 2 20.992981737272004 3.8793951355727976 2 24.957854322138783 1.52 2 24.455408852727793 11.88828100412913 2 36.685166514875675 14.214475149040929 2 31.697589730326797 1.3600000000000003 2 34.005801795830124 3.2198827692838385 2 37.168647159436553 3.4181900281446898 2 41.584720684779199 1.924558305628004 2 45.545550339155753 4.5717303504518529 2 47.70398443669874 2.3619134510522715 2 54.555536344550951 4.2311129962639873 2 58.755178504792816 1.3600000000000003 2 62.024359905033293 7.0611937121829191 2 67.608728704452034 5.7715162601012446 2 66.224606937668298 12.724907722516058 2 69.11876170556009 4.5427777677383494 2 70.906971814495904 2.0229920470177274 2 78.020152037090142 16.331457740182319 2 75.537540909834334 5.2836416207416379 2 79.109159194872376 8.8257054512343878 2 82.308571470517009 4.3274029042974131 2 86.166151952693511 11.932608332000656 2 93.197278339853327 4.775347872759701 2 95.218062849399757 1.44 2 2.7059568527288689 11.108042909222251 2 4.2438396681877624 7.8632848764543199 2 10.347398553528533 2.27990771262645 2 10.987378579960655 1.3600000000000003 2 17.067142895151406 10.179316423628753 2 19.197979332916201 8.6629028908929637 2 25.660492066387086 5.1631899168485207 2 29.551025747932307 10.535001344545204 2 31.150995392221581 11.556852799683853 2 32.782071762162104 6.2647311667712042 2 40.347379871859388 12.310329012289344 2 43.548787680598238 9.0857300412413267 2 48.974441692173286 10.854687876130543 2 57.498169660080926 11.680248615190415 2 60.491338462504132 11.67247198933819 2 62.484296560579651 1.3600000000000003 2 64.574900111256198 1.8207946707122669 2 71.822509345826219 16.475053923693295 2 69.728711821420234 9.0946947901693225 2 72.305527555571089 11.780851793328049 2 80.565552918925206 7.8907775198102748 2 84.715614615130534 6.8806237654807845 2 91.896968945523469 4.9370422846480668 2 95.765664759835133 5.961741793657537 2 1.622638113501804 1.3600000000000003 2 4.6347096017503109 2.3312102369654513 2 8.1033041980810037 8.6607386703243137 2 13.944023137917313 14.798727642708036 2 15.690955260949281 4.0401582649123506 2 16.623439615368341 12.838758233563306 2 18.947236154049659 1.44 2 25.440722302249679 16.602151574269897 2 34.571131605799955 14.31525975592972 2 28.009011686014521 1.3600000000000003 2 33.353207432820504 2.143825712796616 2 36.087307934865201 3.8964285754503347 2 40.041703177253652 5.2448912620282133 2 43.44793734777469 2.7864976812426723 2 47.764604250866654 5.7417057311337167 2 56.797400434871072 2.5721233356179072 2 61.049444758484867 7.2442861271178218 2 63.059606151138404 13.934628029363614 2 68.194367309971639 1.3600000000000003 2 71.8320515952703 1.3600000000000003 2 77.458239615141892 12.133342978322849 2 75.328306154964395 1.4756217232201128 2 83.565491181501002 3.0419173694857307 2 85.152000461964192 14.686591222636308 2 95.266671258337411 9.8513283644107759 2 96.015149131149713 3.6126775781057314 2 1.3600000000000003 10.701585052177661 2 5.6416592341045613 10.002492681109549 2 9.3035409160941889 4.4331057611620217 2 12.270104268567053 12.493580170205229 2 17.893700307237921 5.7531695919941139 2 20.281015386779654 12.227955333524006 2 22.542095558997961 3.9342058271683809 2 29.653170561909313 12.46460125198467 2 30.533280872048923 4.0176992161805867 2 32.475580877519342 11.179497377371773 2 36.700269787617671 7.1163539201208303 2 42.593783648896476 12.365591122111161 2 45.294464653561171 10.749682622998183 2 49.636298065695222 4.6835340711411373 2 58.649724583522797 15.985228166599764 2 63.324251115138765 11.129424485310597 2 67.002369855364293 15.700537754731599 2 70.44582299642444 13.751765630805489 2 73.16408249256672 4.6476605357173666 2 73.83991350070076 15.362328326913184 2 74.780657837851209 13.217154177495384 2 79.67701549485615 1.3600000000000003 2 82.173507125695053 11.162757965721658 2 85.665939657905213 3.1075821183443306 2 94.238066699143161 2.175710155581009 2 95.007500645087276 12.213493011718841 2 1.3600000000000003 4.0859605744768386 2 3.3495207781688872 3.6350021074271734 2 8.7652883832039006 13.269852304344095 2 15.45651652020144 1.3600000000000003 2 21.802863372987911 6.2904161703583936 2 27.549200439640625 2.4374123030810035 2 26.233450807818524 9.6843696477482641 2 35.951488255806929 12.206205409569765 2 32.492219382015925 1.3600000000000003 2 38.678431658221655 1.52 2 43.507792397606309 1.3600000000000003 2 43.06562833698024 5.1936071042186347 2 49.591999049273682 1.52 2 56.211965286054117 5.4061139119943666 2 60.589783265999415 3.0210672295544265 2 65.417775673404634 10.019028682244477 2 70.782780915250598 2.748780342031635 2 80.937469945561659 15.765859747459036 2 80.011790689759124 3.7429855188165484 2 87.582644393343514 14.545156724073943 2 91.547490525216887 2.4401636762975927 2 97.332651059160042 1.5199999999999998 2 11.693952428465348 4.8419408118147613 2 31.763788451596568 8.5612414315512471 2 43.584894978898554 7.4555635092371446 2 75.551998173132162 7.7511847623238523 2 76.735397505299645 7.3554204799208058 2 77.116226614552204 3.5930183851529258 2 24.140923203046121 3.1765515640268034 2 64.664618484495307 7.314588408670649 2 67.559845662975917 8.233606395487854 2 78.668494207898789 6.2507445384407481 2 12.474073813623205 4.2167144760402264 2 26.592075261656504 7.2592368492492589 2 63.391609977089139 4.1401940856484876 2 65.948549377735702 4.0003332233124738 2 10.85293260737107 6.7951159746835419 2 14.703129906745446 8.504238016618455 2 33.901383536022607 4.4563997941751339 2 62.682381171951903 5.6029683437014208 2 66.971499660509835 5.514740739738885 2 68.431987860930761 4.3745044724836095 2 74.140897938313941 4.0700377056518615 2 77.529549281622081 9.7732025051323852 2 </DataArray>
</Points>
<Cells>
<DataArray Name="connectivity" format="ascii" type="Int32">0</DataArray>
<DataArray Name="offsets" format="ascii" type="Int32">0</DataArray>
<DataArray Name="types" format="ascii" type="UInt8">1</DataArray>
</Cells>
<PointData>
<DataArray Name="Points" NumberOfComponents="3" format="ascii" type="Float32">1.52 7.6653456200443335 2 5.7244552855024136 7.2235151413761338 2 8.3913613855057179 1.3600000000000003 2 12.200404493163466 1.44 2 12.214584976513748 7.0623399783123162 2 16.434070737307817 7.8675541797160777 2 19.595510237737354 7.2118221988428486 2 25.073449168475747 8.3435275052900639 2 29.480092714499001 7.5971492022074711 2 29.653505439075118 15.180893628257166 2 33.36203598477649 8.263567889676807 2 34.314222772656272 6.5303125198540162 2 39.49777214718052 9.526086594645486 2 41.906924856620243 7.1456747134949934 2 45.974013383251666 8.5862488355847226 2 48.559868345800581 8.5028467498619662 2 57.731872296366582 9.4460438776699771 2 61.355796206365746 13.904425766138475 2 61.41720838794582 1.3600000000000003 2 65.499607588650079 1.3600000000000003 2 69.306657267095133 15.940430753652732 2 70.411839483628412 7.2186184725993892 2 74.064169647022197 7.4449336637996311 2 71.977194167786678 14.248522717111966 2 75.800521479891756 8.7144865197843107 2 77.704504146443142 2.8899648387869452 2 81.53025414556906 6.0512098414582276 2 84.534002681621999 5.0984042620796446 2 90.355463139370997 5.7676340175413516 2 96.800782411140915 8.336751383562973 2 2.5904673228319699 1.44 2 5.599428906811732 1.44 2 8.331933882629345 6.2329494266870578 2 10.88298006550947 14.862648213506708 2 15.172207961462608 4.6437580852745226 2 14.14991414039315 11.998380092801254 2 18.902821843848745 2.5982905110112604 2 26.127237871564251 4.4629512744983968 2 26.451655194546948 14.041421243806511 2 32.243298971277945 15.155577856193217 2 28.902428085935576 1.3600000000000003 2 35.620511200648885 1.44 2 37.048341816079947 5.5119108920237228 2 40.825692820205759 2.6944806633143639 2 45.766198243142732 1.828230297164374 2 46.724121191156193 4.532931326020849 2 56.243329113119216 1.52 2 60.018234717361111 4.7077945289068053 2 65.883732797927735 7.4532240195666439 2 66.54697956975356 9.8464644886509234 2 64.606772850971296 14.248513381838846 2 68.38409631357041 2.1773878280298939 2 72.731422937533168 1.3600000000000003 2 78.885784247119005 13.279152582401046 2 76.172784799026672 1.3600000000000003 2 79.275624571992054 5.8050926881020084 2 83.101966901404424 1.44 2 82.961443564902595 13.719768649438144 2 93.408034904313936 7.5987386777276082 2 95.613357678564057 4.5694838944498004 2 1.5999999999999999 13.850879001630402 2 5.5013287998248517 12.297397273215099 2 7.4500672704945385 2.1589655714064868 2 12.65318584796562 3.2734664289047894 2 11.378822515272661 9.5450218992083578 2 18.76041518805118 6.282043660890853 2 21.429796008319904 10.438454484388178 2 24.232725390883441 5.7078971109305501 2 27.730953009827381 7.3717683565352798 2 27.281970741829038 12.18281279720742 2 29.141706978000201 4.759710342207284 2 34.535790554375374 10.328248977466616 2 38.912608204865542 8.291162989981089 2 41.388877458161687 9.5436085691580299 2 45.780902765926918 15.505090024275724 2 48.951568743607403 5.6990032988199752 2 58.979447562463974 13.200778507005365 2 61.099117997324136 9.8394049196335427 2 64.179439473151504 5.4657133311834158 2 66.385334126112085 3.4557379732347293 2 68.412591379975652 11.974504295588579 2 70.366901932644055 10.440470934645548 2 72.646432311729626 5.4153646546280125 2 76.311892260815497 13.940463940549913 2 73.312256376527642 10.535249364683461 2 79.987355287528729 2.2991543251450692 2 81.042215497828678 12.451207390490456 2 85.059251112034673 1.52 2 92.524270812177662 1.52 2 96.460421683883666 10.209744660573833 2 1.44 6.4596132860130027 2 5.0902060877212785 4.9789408468781176 2 9.4760347705325785 6.6352605243594027 2 9.4554622903038563 11.117780162224784 2 16.455965581106817 1.52 2 13.846816630735331 8.7886508822746343 2 20.992981737272004 3.8793951355727976 2 24.957854322138783 1.52 2 24.455408852727793 11.88828100412913 2 36.685166514875675 14.214475149040929 2 31.697589730326797 1.3600000000000003 2 34.005801795830124 3.2198827692838385 2 37.168647159436553 3.4181900281446898 2 41.584720684779199 1.924558305628004 2 45.545550339155753 4.5717303504518529 2 47.70398443669874 2.3619134510522715 2 54.555536344550951 4.2311129962639873 2 58.755178504792816 1.3600000000000003 2 62.024359905033293 7.0611937121829191 2 67.608728704452034 5.7715162601012446 2 66.224606937668298 12.724907722516058 2 69.11876170556009 4.5427777677383494 2 70.906971814495904 2.0229920470177274 2 78.020152037090142 16.331457740182319 2 75.537540909834334 5.2836416207416379 2 79.109159194872376 8.8257054512343878 2 82.308571470517009 4.3274029042974131 2 86.166151952693511 11.932608332000656 2 93.197278339853327 4.775347872759701 2 95.218062849399757 1.44 2 2.7059568527288689 11.108042909222251 2 4.2438396681877624 7.8632848764543199 2 10.347398553528533 2.27990771262645 2 10.987378579960655 1.3600000000000003 2 17.067142895151406 10.179316423628753 2 19.197979332916201 8.6629028908929637 2 25.660492066387086 5.1631899168485207 2 29.551025747932307 10.535001344545204 2 31.150995392221581 11.556852799683853 2 32.782071762162104 6.2647311667712042 2 40.347379871859388 12.310329012289344 2 43.548787680598238 9.0857300412413267 2 48.974441692173286 10.854687876130543 2 57.498169660080926 11.680248615190415 2 60.491338462504132 11.67247198933819 2 62.484296560579651 1.3600000000000003 2 64.574900111256198 1.8207946707122669 2 71.822509345826219 16.475053923693295 2 69.728711821420234 9.0946947901693225 2 72.305527555571089 11.780851793328049 2 80.565552918925206 7.8907775198102748 2 84.715614615130534 6.8806237654807845 2 91.896968945523469 4.9370422846480668 2 95.765664759835133 5.961741793657537 2 1.622638113501804 1.3600000000000003 2 4.6347096017503109 2.3312102369654513 2 8.1033041980810037 8.6607386703243137 2 13.944023137917313 14.798727642708036 2 15.690955260949281 4.0401582649123506 2 16.623439615368341 12.838758233563306 2 18.947236154049659 1.44 2 25.440722302249679 16.602151574269897 2 34.571131605799955 14.31525975592972 2 28.009011686014521 1.3600000000000003 2 33.353207432820504 2.143825712796616 2 36.087307934865201 3.8964285754503347 2 40.041703177253652 5.2448912620282133 2 43.44793734777469 2.7864976812426723 2 47.764604250866654 5.7417057311337167 2 56.797400434871072 2.5721233356179072 2 61.049444758484867 7.2442861271178218 2 63.059606151138404 13.934628029363614 2 68.194367309971639 1.3600000000000003 2 71.8320515952703 1.3600000000000003 2 77.458239615141892 12.133342978322849 2 75.328306154964395 1.4756217232201128 2 83.565491181501002 3.0419173694857307 2 85.152000461964192 14.686591222636308 2 95.266671258337411 9.8513283644107759 2 96.015149131149713 3.6126775781057314 2 1.3600000000000003 10.701585052177661 2 5.6416592341045613 10.002492681109549 2 9.3035409160941889 4.4331057611620217 2 12.270104268567053 12.493580170205229 2 17.893700307237921 5.7531695919941139 2 20.281015386779654 12.227955333524006 2 22.542095558997961 3.9342058271683809 2 29.653170561909313 12.46460125198467 2 30.533280872048923 4.0176992161805867 2 32.475580877519342 11.179497377371773 2 36.700269787617671 7.1163539201208303 2 42.593783648896476 12.365591122111161 2 45.294464653561171 10.749682622998183 2 49.636298065695222 4.6835340711411373 2 58.649724583522797 15.985228166599764 2 63.324251115138765 11.129424485310597 2 67.002369855364293 15.700537754731599 2 70.44582299642444 13.751765630805489 2 73.16408249256672 4.6476605357173666 2 73.83991350070076 15.362328326913184 2 74.780657837851209 13.217154177495384 2 79.67701549485615 1.3600000000000003 2 82.173507125695053 11.162757965721658 2 85.665939657905213 3.1075821183443306 2 94.238066699143161 2.175710155581009 2 95.007500645087276 12.213493011718841 2 1.3600000000000003 4.0859605744768386 2 3.3495207781688872 3.6350021074271734 2 8.7652883832039006 13.269852304344095 2 15.45651652020144 1.3600000000000003 2 21.802863372987911 6.2904161703583936 2 27.549200439640625 2.4374123030810035 2 26.233450807818524 9.6843696477482641 2 35.951488255806929 12.206205409569765 2 32.492219382015925 1.3600000000000003 2 38.678431658221655 1.52 2 43.507792397606309 1.3600000000000003 2 43.06562833698024 5.1936071042186347 2 49.591999049273682 1.52 2 56.211965286054117 5.4061139119943666 2 60.589783265999415 3.0210672295544265 2 65.417775673404634 10.019028682244477 2 70.782780915250598 2.748780342031635 2 80.937469945561659 15.765859747459036 2 80.011790689759124 3.7429855188165484 2 87.582644393343514 14.545156724073943 2 91.547490525216887 2.4401636762975927 2 97.332651059160042 1.5199999999999998 2 11.693952428465348 4.8419408118147613 2 31.763788451596568 8.5612414315512471 2 43.584894978898554 7.4555635092371446 2 75.551998173132162 7.7511847623238523 2 76.735397505299645 7.3554204799208058 2 77.116226614552204 3.5930183851529258 2 24.140923203046121 3.1765515640268034 2 64.664618484495307 7.314588408670649 2 67.559845662975917 8.233606395487854 2 78.668494207898789 6.2507445384407481 2 12.474073813623205 4.2167144760402264 2 26.592075261656504 7.2592368492492589 2 63.391609977089139 4.1401940856484876 2 65.948549377735702 4.0003332233124738 2 10.85293260737107 6.7951159746835419 2 14.703129906745446 8.504238016618455 2 33.901383536022607 4.4563997941751339 2 62.682381171951903 5.6029683437014208 2 66.971499660509835 5.514740739738885 2 68.431987860930761 4.3745044724836095 2 74.140897938313941 4.0700377056518615 2 77.529549281622081 9.7732025051323852 2 </DataArray>