<?xml version="1.0" ?>
<VTKFile byte_order="LittleEndian" type="UnstructuredGrid" version="0.1">
<UnstructuredGrid>
<Piece NumberOfCells="0" NumberOfPoints="142">
<Points>
<DataArray NumberOfComponents="3" format="ascii" type="Float32">28.072667448880395 0.7 2 64.633465725896073 9.1437911328391213 2 67.684656030144069 0.7 2 72.637887586650919 8.0980140669861331 2 72.009898910146504 5.9149267050563061 2 73.941057856807504 0.7 2 14.919052042841368 5.5958874143068629 2 31.364294213833137 8.3926634020472459 2 72.686818037490241 6.9555000166212126 2 66.767757077228694 5.2939865275196931 2 28.288757415353462 3.1282865515992939 2 72.256934240954777 3.4078934427173246 2 71.378688238018711 4.834730272793049 2 76.630688389355356 4.4552868841047308 2 80.0414694339607 8.5412724775298656 2 11.186621064737851 6.76466455003807 2 28.06621485196743 8.3808708142301604 2 30.313458492955885 8.4222775035971242 2 40.318882665845059 5.8300559677744443 2 71.870831679519398 7.2136063295542101 2 73.554374671153724 7.2784286377509151 2 76.202536068744138 5.1644436101083473 2 76.869639702011185 0.7 2 28.124072397134462 2.068752192045709 2 61.715417780023806 3.2875067941245293 2 65.587403787104279 7.3228832945090545 2 69.099230491702372 6.1616238087395292 2 75.619394266577117 9.9267458898995216 2 77.014085559133022 5.6980103045083919 2 11.52883022641632 3.5433701502731552 2 14.088231437487261 8.9536973069066015 2 27.435939147353107 7.4105619281504076 2 31.330712220007118 5.1090445335181656 2 35.005729065364434 7.8916216100902634 2 63.772836772787713 3.2657371179200916 2 66.64950325404368 0.7 2 69.102304328182981 7.6189637826516865 2 75.6452170236782 8.6218750289582342 2 10.182139736619819 7.4850405513255867 2 15.176755550420967 8.7150417710980594 2 24.946228140547717 7.4696765181755298 2 30.661902193704087 3.2088579693758055 2 61.642143863652564 7.2180114838035552 2 68.143370809701736 2.4138549929023272 2 64.546619039313697 7.7171923423548705 2 71.446617922993738 4.007038981525004 2 73.897240073271277 2.0576668581162894 2 79.061798440676711 9.0600802080496123 2 78.82909969829845 2.759729979722827 2 13.493548388708069 0.7 2 12.589543530572181 6.3777472661616104 2 26.287124283964509 7.2628780581926051 2 30.085364182814029 5.6951435855330033 2 32.05554739899847 4.6980603304954576 2 34.223807655329793 7.144306822154582 2 40.949483218964289 6.740174943028344 2 44.668406756514749 5.4105253353578959 2 62.744004178963486 3.4756607784666631 2 63.783758007211397 2.3290338094852836 2 72.949044731125426 6.0600460398758456 2 74.591243498609344 7.6212629548250987 2 77.970824831060625 2.9184502059969928 2 80.861446621407225 7.7844354385192576 2 16.640165229633798 3.0028339303219589 2 27.543169978505592 3.0938907830573856 2 29.214926631799194 2.960615609955775 2 41.038679358116681 5.0037426305995201 2 63.444960077012404 7.1076200140930865 2 68.429264100088673 5.6870728444565639 2 67.447516940658645 1.5746264510528634 2 78.041394433727248 6.084655830714528 2 10.797952059473619 3.5458404434776534 2 13.679691931469755 1.5095668450613258 2 16.791213614717687 4.0167757153814163 2 28.518822800324763 4.0409829752979149 2 28.89666531882499 5.3649164195408368 2 64.622833352400221 2.5443525914872485 2 66.806505335437905 1.8315147464089712 2 73.301709097561897 2.7532724539294855 2 77.791795334019994 0.7 2 9.0757948719986796 4.7119668641682662 2 14.2268453093389 4.8790269661540826 2 30.387262512654402 2.4641284498172928 2 31.369784480479414 3.9361588247146919 2 43.585122627180432 5.2874424362067538 2 62.522228790406103 6.6075178315458949 2 69.611549099553216 5.1901874763186138 2 68.132682623175242 8.2754285573164648 2 70.542738548605314 4.6822826342762554 2 71.149586555356095 3.2801632562510856 2 76.071011125102373 3.7176636564698256 2 79.360136163990475 7.8829238179503545 2 8.8118110640985456 0.7 2 11.141428357731465 2.6792314729064421 2 13.508660916292907 4.6113519822782729 2 16.296901176817084 8.8932828351903073 2 24.370613142846771 6.0594170737897306 2 30.882449899494535 6.0089292466335564 2 42.333222866540915 4.6208963316793294 2 62.694498986684955 2.773227741086659 2 64.104553015883454 0.7 2 75.483781162837118 4.8070973596866287 2 76.470935231847562 8.1911985864994854 2 77.677768342889422 1.6064532842125725 2 80.048439034772585 7.1716762251403781 2 7.6163376861878662 5.304751365847066 2 14.07704924371961 3.4788405171855081 2 27.235902461766553 3.9449986149250256 2 34.656098590780559 0.7 2 42.054683566069954 3.7904573999483517 2 64.1964639346848 6.5247746809335769 2 68.524960472672944 6.9546701064458247 2 69.257406128707004 2.7964341600048952 2 71.767375622768824 2.7124359695975753 2 74.457596058740847 1.2941886639776481 2 77.373167857296053 3.8051292149619678 2 80.02631074146862 2.542512360988296 2 8.6000549047833239 1.7209851496474051 2 13.62429239862483 2.3985376109930656 2 13.121568749369738 9.2962302613083878 2 15.912291215880092 5.0462206309682216 2 24.696513027417193 3.0344937859864731 2 27.863190429894924 4.4914349728951004 2 64.738362821695674 3.3276583437749996 2 65.821738972410785 2.6227270108288057 2 71.672878668834741 8.3608570899384844 2 72.244336111453308 5.0752263036444774 2 80.130195277238116 0.7 2 10.294638482944428 4.2063564284282942 2 13.699647595673341 5.7798758481142141 2 31.528555251439947 2.7001155751645407 2 32.009033563966135 3.3988857739077183 2 41.110234212730859 0.7 2 42.459414054915769 2.9293962712486605 2 63.425281866345827 5.9471288848491071 2 67.549756896584569 2.7421996302869189 2 70.343038428955893 3.6163866458351617 2 70.42915098606241 2.7078433850056722 2 74.683936753735608 2.5930955345039326 2 78.989749170242931 6.7471132956015625 2 78.953051982362155 3.5650625734827837 2 93.176877538790507 5.3696333368218303 2 </DataArray>
</Points>
<Cells>
<DataArray Name="connectivity" format="ascii" type="Int32">0</DataArray>
<DataArray Name="offsets" format="ascii" type="Int32">0</DataArray>
<DataArray Name="types" format="ascii" type="UInt8">1</DataArray>
</Cells>
<PointData>
<DataArray Name="Points" NumberOfComponents="3" format="ascii" type="Float32">28.072667448880395 0.7 2 64.633465725896073 9.1437911328391213 2 67.684656030144069 0.7 2 72.637887586650919 8.0980140669861331 2 72.009898910146504 5.9149267050563061 2 73.941057856807504 0.7 2 14.919052042841368 5.5958874143068629 2 31.364294213833137 8.3926634020472459 2 72.686818037490241 6.9555000166212126 2 66.767757077228694 5.2939865275196931 2 28.288757415353462 3.1282865515992939 2 72.256934240954777 3.4078934427173246 2 71.378688238018711 4.834730272793049 2 76.630688389355356 4.4552868841047308 2 80.0414694339607 8.5412724775298656 2 11.186621064737851 6.76466455003807 2 28.06621485196743 8.3808708142301604 2 30.313458492955885 8.4222775035971242 2 40.318882665845059 5.8300559677744443 2 71.870831679519398 7.2136063295542101 2 73.554374671153724 7.2784286377509151 2 76.202536068744138 5.1644436101083473 2 76.869639702011185 0.7 2 28.124072397134462 2.068752192045709 2 61.715417780023806 3.2875067941245293 2 65.587403787104279 7.3228832945090545 2 69.099230491702372 6.1616238087395292 2 75.619394266577117 9.9267458898995216 2 77.014085559133022 5.6980103045083919 2 11.52883022641632 3.5433701502731552 2 14.088231437487261 8.9536973069066015 2 27.435939147353107 7.4105619281504076 2 31.330712220007118 5.1090445335181656 2 35.005729065364434 7.8916216100902634 2 63.772836772787713 3.2657371179200916 2 66.64950325404368 0.7 2 69.102304328182981 7.6189637826516865 2 75.6452170236782 8.6218750289582342 2 10.182139736619819 7.4850405513255867 2 15.176755550420967 8.7150417710980594 2 24.946228140547717 7.4696765181755298 2 30.661902193704087 3.2088579693758055 2 61.642143863652564 7.2180114838035552 2 68.143370809701736 2.4138549929023272 2 64.546619039313697 7.7171923423548705 2 71.446617922993738 4.007038981525004 2 73.897240073271277 2.0576668581162894 2 79.061798440676711 9.0600802080496123 2 78.82909969829845 2.759729979722827 2 13.493548388708069 0.7 2 12.589543530572181 6.3777472661616104 2 26.287124283964509 7.2628780581926051 2 30.085364182814029 5.6951435855330033 2 32.05554739899847 4.6980603304954576 2 34.223807655329793 7.144306822154582 2 40.949483218964289 6.740174943028344 2 44.668406756514749 5.4105253353578959 2 62.744004178963486 3.4756607784666631 2 63.783758007211397 2.3290338094852836 2 72.949044731125426 6.0600460398758456 2 74.591243498609344 7.6212629548250987 2 77.970824831060625 2.9184502059969928 2 80.861446621407225 7.7844354385192576 2 16.640165229633798 3.0028339303219589 2 27.543169978505592 3.0938907830573856 2 29.214926631799194 2.960615609955775 2 41.038679358116681 5.0037426305995201 2 63.444960077012404 7.1076200140930865 2 68.429264100088673 5.6870728444565639 2 67.447516940658645 1.5746264510528634 2 78.041394433727248 6.084655830714528 2 10.797952059473619 3.5458404434776534 2 13.679691931469755 1.5095668450613258 2 16.791213614717687 4.0167757153814163 2 28.518822800324763 4.0409829752979149 2 28.89666531882499 5.3649164195408368 2 64.622833352400221 2.5443525914872485 2 66.806505335437905 1.8315147464089712 2 73.301709097561897 2.7532724539294855 2 77.791795334019994 0.7 2 9.0757948719986796 4.7119668641682662 2 14.2268453093389 4.8790269661540826 2 30.387262512654402 2.4641284498172928 2 31.369784480479414 3.9361588247146919 2 43.585122627180432 5.2874424362067538 2 62.522228790406103 6.6075178315458949 2 69.611549099553216 5.1901874763186138 2 68.132682623175242 8.2754285573164648 2 70.542738548605314 4.6822826342762554 2 71.149586555356095 3.2801632562510856 2 76.071011125102373 3.7176636564698256 2 79.360136163990475 7.8829238179503545 2 8.8118110640985456 0.7 2 11.141428357731465 2.6792314729064421 2 13.508660916292907 4.6113519822782729 2 16.296901176817084 8.8932828351903073 2 24.370613142846771 6.0594170737897306 2 30.882449899494535 6.0089292466335564 2 42.333222866540915 4.6208963316793294 2 62.694498986684955 2.773227741086659 2 64.104553015883454 0.7 2 75.483781162837118 4.8070973596866287 2 76.470935231847562 8.1911985864994854 2 77.677768342889422 1.6064532842125725 2 80.048439034772585 7.1716762251403781 2 7.6163376861878662 5.304751365847066 2 14.07704924371961 3.4788405171855081 2 27.235902461766553 3.9449986149250256 2 34.656098590780559 0.7 2 42.054683566069954 3.7904573999483517 2 64.1964639346848 6.5247746809335769 2 68.524960472672944 6.9546701064458247 2 69.257406128707004 2.7964341600048952 2 71.767375622768824 2.7124359695975753 2 74.457596058740847 1.2941886639776481 2 77.373167857296053 3.8051292149619678 2 80.02631074146862 2.542512360988296 2 8.6000549047833239 1.7209851496474051 2 13.62429239862483 2.3985376109930656 2 13.121568749369738 9.2962302613083878 2 15.912291215880092 5.0462206309682216 2 24.696513027417193 3.0344937859864731 2 27.863190429894924 4.4914349728951004 2 64.738362821695674 3.3276583437749996 2 65.821738972410785 2.6227270108288057 2 71.672878668834741 8.3608570899384844 2 72.244336111453308 5.0752263036444774 2 80.130195277238116 0.7 2 10.294638482944428 4.2063564284282942 2 13.699647595673341 5.7798758481142141 2 31.528555251439947 2.7001155751645407 2 32.009033563966135 3.3988857739077183 2 41.110234212730859 0.7 2 42.459414054915769 2.9293962712486605 2 63.425281866345827 5.9471288848491071 2 67.549756896584569 2.7421996302869189 2 70.343038428955893 3.6163866458351617 2 70.42915098606241 2.7078433850056722 2 74.683936753735608 2.5930955345039326 2 78.989749170242931 6.7471132956015625 2 78.953051982362155 3.5650625734827837 2 93.176877538790507 5.3696333368218303 2 </DataArray>
<DataArray Name="forces" NumberOfComponents="3" format="ascii" type="Float32">-0.024210513939564433 -0.5763533795339949 0.0 0.056208578282064825 0.14836677384690367 0.0 0.012500172206211968 -0.72417851195176031 0.0 0.042766218412374157 0.12087822871163635 0.0 -0.03592417710639581 0.094549615568879752 0.0 -0.13900243398262663 -0.85807682442579358 0.0 0.014219720478606229 0.1843228701712431 0.0 0.012996273177780848 0.24202407548125304 0.0 0.016412934279400632 0.066523985110113371 0.0 0.058793183802161031 0.21336279197776753 0.0 -0.029019673574136387 0.024239993632653757 0.0 0.094209295324193143 0.1455224913463814 0.0 -0.079251863572982029 0.1882097089088888 0.0 0.033713146548110418 0.089255825160879793 0.0 0.055229556304456903 0.062529302367109185 0.0 0.059202368484673945 0.16627575299629718 0.0 -0.043657281542187037 0.26248836621538035 0.0 -0.0066626403545598234 0.29150789987014447 0.0 0.083756054714199557 0.10061818408841364 0.0 0.063036618979300074 0.1871548926055491 0.0 0.017322644920537256 0.21316791795328999 0.0 0.043532941629980393 0.088944688654618437 0.0 0.092578316056627724 -0.84784290875983581 0.0 0.029371303332006368 -0.03969752880992572 0.0 -0.093201099312961388 0.082500977839856174 0.0 -0.16001963367613115 0.2293269657044372 0.0 -0.022039340492820803 0.049720786515621729 0.0 -0.018125197056334693 0.12182746994077313 0.0 0.032105375080410226 0.16306380496096934 0.0 -0.06960121361380639 0.17442874730380756 0.0 0.061374956493549293 0.26248116455204129 0.0 -0.055806223778520236 0.22225738737418504 0.0 0.029152445963738172 0.21482857775816572 0.0 0.035122076878299019 0.22400743393155093 0.0 -0.05844365251160355 0.027890669221790447 0.0 0.0090599636788966861 -0.73379441933497402 0.0 0.011563209743655045 0.214529260892596 0.0 -0.07216540343192368 0.14233266543149814 0.0 -0.0043761280059753382 0.33357295602901849 0.0 -0.027038528254963057 0.14996842396381219 0.0 0.087341809316867719 0.09081941466952663 0.0 0.04538080420041684 0.086511003093562022 0.0 0.033244576559413319 0.32543762156836831 0.0 0.031226943996646273 0.12496322265292803 0.0 -0.06709995544032743 0.19190050074668363 0.0 0.056570766779540288 0.1278914173578245 0.0 -0.0027934772829284471 -0.014557371085206494 0.0 0.063689175322368702 0.22605656122921158 0.0 0.0030533047819162329 0.077015509220612177 0.0 0.032857605421791142 -0.93598601701624251 0.0 -0.10289815217949427 0.24693030897522528 0.0 -0.046000140707122016 0.19468695474385769 0.0 -0.087810467375758816 0.25042608106477332 0.0 0.035565140658482104 0.040318509587557144 0.0 -0.040953433020146895 0.26979194677142682 0.0 -0.13319414322044559 0.19366944887446291 0.0 0.013616743416298815 0.21864870802357184 0.0 -0.14384870804394323 0.14022827575318642 0.0 -0.027999571457511724 -0.0057679453872024056 0.0 -0.049308047065960661 0.084533268533583394 0.0 0.084610634171300519 0.28848975325849707 0.0 0.011728357913532189 0.025306135719263823 0.0 0.16878294044327372 0.25320395881728752 0.0 0.14511050586787075 0.12902941710156152 0.0 -0.071082596626239281 -0.047844887060705277 0.0 -0.024795050164399812 0.061432738304773409 0.0 0.10959349145050276 0.065202933908208832 0.0 -0.066328616389225922 0.24499174473952423 0.0 -0.091820207570651707 0.13465982106471244 0.0 0.0067908143351333022 -0.054984047465662655 0.0 -0.065698241090476311 0.16650542553453856 0.0 -0.059191137711082586 0.11555744158055176 0.0 -0.045722587508700493 -0.019239310304753676 0.0 -0.0046656612147251558 0.18480170428289971 0.0 -0.024710546734010297 0.0424130988808466 0.0 -0.028081652147410575 0.084629606263383991 0.0 -0.0059112275495897815 0.00032501402767499445 0.0 -0.012208888824082414 0.13324384857172875 0.0 -0.0094522909246433449 0.024019148748152672 0.0 -0.016010574179952844 -0.84272399681272758 0.0 -0.053098219765232463 0.12486786636728089 0.0 0.11304844811574979 0.017567289859001411 0.0 -0.019042938475301613 0.13838699960987411 0.0 0.040105234456322802 0.1489201432429908 0.0 0.026158382869315211 0.22437720699204453 0.0 -0.019166413016764139 0.17773157264425943 0.0 0.069519590735685755 0.16289469234650056 0.0 0.07084173117882768 0.29067714921943877 0.0 0.011563996698618267 0.10458575644405368 0.0 -0.024240985529870029 0.13852953310910707 0.0 0.014884004955891747 0.065640790394905488 0.0 -0.042268311608406148 0.096353403463453308 0.0 -0.10901387347091046 -0.80959461866936244 0.0 -0.07231047074767874 0.082251329502284309 0.0 0.020754832856665538 0.037648839374247456 0.0 -0.10390675434004615 0.3068888170120182 0.0 -0.029471857988597222 0.19497475100837736 0.0 0.051567782991954303 0.092614671387163616 0.0 -0.025327385111772599 0.14901765378692194 0.0 -0.0023264616556079587 0.097131861095770641 0.0 -0.071925756447722811 -0.65424351270529901 0.0 0.0073751234754905609 0.14369578629420685 0.0 -0.029549575929943894 0.27771145267662067 0.0 0.12318073518240676 0.18257214501256885 0.0 0.066091303602319851 0.1678279427729216 0.0 0.02061376323069837 0.060954102170176716 0.0 -0.013620734239983667 0.084862069362818884 0.0 0.019439661514789319 0.070401676452526596 0.0 -0.010378301944515389 -0.75032517889856087 0.0 0.0026045589971777361 0.13075571447434997 0.0 -0.025521890897915733 0.15676790632408449 0.0 0.026793492497995404 0.14990466854746151 0.0 0.036151315853295313 0.091508132436340123 0.0 0.059530519976783408 0.20987210513434273 0.0 -0.016662861938336944 -0.16023312288626795 0.0 0.025549167008576568 0.022955012139415931 0.0 -0.02010035514052344 0.076921797093174121 0.0 -0.064882091072569231 -0.034003926518884398 0.0 0.24751077449377026 0.072391306974811442 0.0 0.067400927086080586 0.2973180432156281 0.0 -0.021049308474407454 0.10927692952212148 0.0 -0.12337719380615431 0.089811562546077917 0.0 -0.017653721473019079 0.066397828505614043 0.0 -0.05225818705240684 0.017963652927500677 0.0 0.0047043544268068754 0.11340618209900177 0.0 0.0078178112032337641 0.25962065992260686 0.0 -0.069220160254335361 0.028715228322034964 0.0 0.112966565322698 -0.84710076712376514 0.0 -0.0046960303268920034 0.15354978889256171 0.0 -0.0043264176632458323 0.074413521928188786 0.0 0.044265378804533573 0.097405875249003682 0.0 0.042350191368480561 0.028285552573759865 0.0 -0.082360630868291818 -0.77832331243431518 0.0 0.054072388205078925 0.10023432770527074 0.0 -0.003576121265161103 0.17781080285994916 0.0 -0.088835562001081392 -0.037101217266570702 0.0 -0.041869149024935243 0.10498341813989531 0.0 0.032032731759218488 0.082222053875931067 0.0 -0.14365817842436801 -0.017885765144902435 0.0 0.024396916415769521 -0.053545017518909943 0.0 0.054072168152622196 0.050227654070584604 0.0 -0.063325359459883407 0.17855407798090928 0.0 </DataArray>
<DataArray Name="radii" format="ascii" type="Float32">0.7 0.7 0.7 0.7 0.7 0.7 0.7 0.7 0.7 0.7 0.7 0.7 0.7 0.7 0.7 0.7 0.7 0.7 0.7 0.7 0.7 0.7 0.7 0.7 0.7 0.7 0.7 0.7 0.7 0.7 0.7 0.7 0.7 0.7 0.7 0.7 0.7 0.7 0.7 0.7 0.7 0.7 0.7 0.7 0.7 0.7 0.7 0.7 0.7 0.7 0.7 0.7 0.7 0.7 0.7 0.7 0.7 0.7 0.7 0.7 0.7 0.7 0.7 0.7 0.7 0.7 0.7 0.7 0.7 0.7 0.7 0.7 0.7 0.7 0.7 0.7 0.7 0.7 0.7 0.7 0.7 0.7 0.7 0.7 0.7 0.7 0.7 0.7 0.7 0.7 0.7 0.7 0.7 0.7 0.7 0.7 0.7 0.7 0.7 0.7 0.7 0.7 0.7 0.7 0.7 0.7 0.7 0.7 0.7 0.7 0.7 0.7 0.7 0.7 0.7 0.7 0.7 0.7 0.7 0.7 0.7 0.7 0.7 0.7 0.7 0.7 0.7 0.7 0.7 0.7 0.7 0.7 0.7 0.7 0.7 0.7 0.7 0.7 0.7 0.7 0.7 0.7 </DataArray>
</PointData>
<CellData/>
</Piece>
</UnstructuredGrid>
</VTKFile>
