<?xml version="1.0" ?>
<VTKFile byte_order="LittleEndian" type="UnstructuredGrid" version="0.1">
<UnstructuredGrid>
<Piece NumberOfCells="0" NumberOfPoints="6">
<Points>
<DataArray NumberOfComponents="3" format="ascii" type="Float32">29.271076433540621 0.7 2 65.749215462962908 3.5718434997672208 2 68.03142015317394 0.7 2 70.74200759751227 3.3816694136490892 2 72.043469148739362 3.7691053450162015 2 74.278005595056996 0.7 2 </DataArray>
</Points>
<Cells>
<DataArray Name="connectivity" format="ascii" type="Int32">0</DataArray>
<DataArray Name="offsets" format="ascii" type="Int32">0</DataArray>
<DataArray Name="types" format="ascii" type="UInt8">1</DataArray>
</Cells>
<PointData>
<DataArray Name="Points" NumberOfComponents="3" format="ascii" type="Float32">29.271076433540621 0.7 2 65.749215462962908 3.5718434997672208 2 68.03142015317394 0.7 2 70.74200759751227 3.3816694136490892 2 72.043469148739362 3.7691053450162015 2 74.278005595056996 0.7 2 </DataArray>
<DataArray Name="forces" NumberOfComponents="3" format="ascii" type="Float32">0.0057471128569250166 -0.0091883995082731144 0.0 0.0 0.0 0.0 0.092080903928652258 -0.52309563490689515 0.0 -0.016216389816879423 0.010479021479511207 0.0 -0.19182596614857114 0.058436214548624132 0.0 -0.26090618718164232 -0.17707591409565948 0.0 </DataArray>
<DataArray Name="radii" format="ascii" type="Float32">0.7 0.7 0.7 0.7 0.7 0.7 </DataArray>
</PointData>
<CellData/>
</Piece>
</UnstructuredGrid>
</VTKFile>
