<?xml version="1.0" ?>
<VTKFile byte_order="LittleEndian" type="UnstructuredGrid" version="0.1">
<UnstructuredGrid>
<Piece NumberOfCells="0" NumberOfPoints="11">
<Points>
<DataArray NumberOfComponents="3" format="ascii" type="Float32">28.65709829818724 0.7 2 64.503389340774206 6.0470319945062725 2 68.139567451055825 0.7 2 71.37120899848928 5.8473116539706904 2 72.462109433471667 5.0037710092947387 2 73.473435599119384 0.7 2 14.433477905138075 3.3147164387591386 2 32.14997743281338 5.3279313614505242 2 73.826539263774833 4.9699272728202564 2 66.466900734358461 3.4164660796402315 2 28.667622709688111 2.1147998694249197 2 </DataArray>
</Points>
<Cells>
<DataArray Name="connectivity" format="ascii" type="Int32">0</DataArray>
<DataArray Name="offsets" format="ascii" type="Int32">0</DataArray>
<DataArray Name="types" format="ascii" type="UInt8">1</DataArray>
</Cells>
<PointData>
<DataArray Name="Points" NumberOfComponents="3" format="ascii" type="Float32">28.65709829818724 0.7 2 64.503389340774206 6.0470319945062725 2 68.139567451055825 0.7 2 71.37120899848928 5.8473116539706904 2 72.462109433471667 5.0037710092947387 2 73.473435599119384 0.7 2 14.433477905138075 3.3147164387591386 2 32.14997743281338 5.3279313614505242 2 73.826539263774833 4.9699272728202564 2 66.466900734358461 3.4164660796402315 2 28.667622709688111 2.1147998694249197 2 </DataArray>
<DataArray Name="forces" NumberOfComponents="3" format="ascii" type="Float32">-0.04616257492822981 -0.22488561966201245 0.0 -0.0062655677941370136 0.05609673647506179 0.0 0.0087153854155976318 -0.52560358879595115 0.0 0.021311500037970492 0.060557101217039215 0.0 -0.00099220823212780446 0.10293963925805193 0.0 -0.038241988912306679 -0.22573426018726012 0.0 -0.020335488612316977 0.017090850383174414 0.0 -0.0083955705361712894 0.054386212874237699 0.0 0.0064129555442123259 0.1140811516863548 0.0 0.010182305866657221 0.040648502051997416 0.0 -0.053127548910640227 0.055169651031764994 0.0 </DataArray>
<DataArray Name="radii" format="ascii" type="Float32">0.7 0.7 0.7 0.7 0.7 0.7 0.7 0.7 0.7 0.7 0.7 </DataArray>
</PointData>
<CellData/>
</Piece>
</UnstructuredGrid>
</VTKFile>
