<?xml version="1.0" ?>
<VTKFile byte_order="LittleEndian" type="UnstructuredGrid" version="0.1">
<UnstructuredGrid>
<Piece NumberOfCells="0" NumberOfPoints="679">
<Points>
<DataArray NumberOfComponents="3" format="ascii" type="Float32">25.967565858579203 0.7 2 64.449918845167232 12.021264599191873 2 67.243615176779642 0.7 2 72.708752479262529 9.0885108582900802 2 71.895358531801989 7.2790284006070509 2 74.378904007072421 0.7 2 14.603398977184739 6.4203100598924667 2 32.175212185987867 9.698018078481919 2 72.451379559588361 7.8421771291720033 2 67.002607316474908 7.2882992419166648 2 28.008939621522217 3.4094793626107314 2 71.800014363132433 4.3314818046184822 2 71.229418160902767 6.1512455610311498 2 76.799201841604329 4.4801363127304494 2 80.645293825865906 10.642011373979447 2 11.162338878224507 7.9547088865140223 2 27.581852523298473 9.5761879667772885 2 30.786470638086374 8.9327951337276517 2 40.780547907853936 6.6795714031471984 2 72.098547046083354 8.4368628542675399 2 73.109858562926945 8.6326335112037853 2 76.964330685207798 6.4223019373455159 2 77.066453433234898 0.7 2 28.738162644384776 3.164085693201192 2 61.022618587106109 4.1567802625426635 2 64.658589949619085 8.9493857352935819 2 69.173067469579138 7.1857292882505615 2 75.589635714317296 11.375285647173746 2 77.747619089485525 6.7905941337577476 2 11.368167852635143 3.7317877731876177 2 13.949864665028967 10.654222762743757 2 27.37883106253113 8.5445419769886204 2 30.708759429616052 5.8738704985903682 2 35.406578669979105 8.2116103511322809 2 63.155665730754549 3.3605659537277908 2 66.731836555042875 0.7 2 68.590518706881909 9.0796649707033499 2 74.956141391278351 10.609640858876645 2 10.506436173765314 8.4447023102879726 2 15.325701771489221 10.885098887342611 2 24.675774198571538 9.693059832645643 2 30.877696170313161 2.6235297896944432 2 61.798808101412945 8.5156540228451156 2 67.845319969622381 3.0542243029636413 2 63.699984256770726 8.7567517787539124 2 71.318462578808749 4.9740061964596887 2 74.357338419539332 1.7819560480422727 2 79.876356454270024 11.008750353604839 2 78.581454656929679 2.6381476900144714 2 13.662443097543683 0.7 2 12.795910483453579 8.333988108979371 2 26.479406833697674 8.3723295382330871 2 30.055145430372963 6.6899211732905099 2 31.528697509319866 5.6745776092617604 2 34.741732799424874 8.0861069936249859 2 40.891960811866532 7.5444195899617856 2 44.46225288182832 6.015868049822453 2 62.073432409416363 3.5879544226775741 2 63.357141242515596 2.0060198288418847 2 72.621872554474749 6.5581195971966668 2 74.884105722655221 10.018466844364196 2 78.55456536270853 3.432853160867952 2 80.797090965716393 9.8045841715615136 2 16.802951689685031 3.3291326173477112 2 27.307374807767879 3.7382125918152758 2 29.190467227533762 3.5475599155901669 2 41.96479586275062 5.6492090367275223 2 62.86494280298357 8.7952640517878233 2 68.393868663542264 7.4080600176839333 2 66.562137512993942 1.6421971901414107 2 77.769126776369689 7.7321318436418691 2 10.212639525376673 3.8843566066321191 2 14.458360271459037 0.7 2 17.467307302168781 3.8797338383450151 2 28.263137711729328 4.2578752176673289 2 28.809972603309831 6.4764382330273698 2 63.608272562346265 2.7370981682699331 2 66.455000993060864 2.3915164955668065 2 73.573432977015685 2.4380440320408798 2 77.830703616126513 0.7 2 7.5842175367424192 5.0700532770710742 2 14.738294269026335 5.7562225385664032 2 30.232559399639019 3.0125975215528924 2 31.524024050560193 4.4016323179978647 2 44.46192814491436 6.6830435896114633 2 62.51370682220923 8.2724819512927823 2 69.630899242821855 5.5441915949788632 2 68.311180268880932 10.523670578877729 2 70.2651902812092 5.4109726700194773 2 71.170804231470143 4.0004456771486252 2 75.997187958420582 4.5139841169810619 2 79.97189873095995 10.011030134306823 2 6.9938244590668806 0.7 2 10.748765492702439 3.4533895734956834 2 13.684462891175816 5.7923840911843358 2 16.117373364888067 11.186784060331476 2 23.551237466442881 6.6570547486461757 2 30.846498330970157 6.5384883622943812 2 42.026135660313138 4.8061226458642183 2 62.563673745275082 3.0663633524628842 2 63.080127305672171 0.7 2 76.553056580615163 5.4050368481464313 2 75.855795316380068 10.51828924730062 2 78.192034926997863 0.96953475597937988 2 79.876091144785121 9.1905831462107557 2 7.0169326908647198 5.4099034527448353 2 13.786259150723259 4.5232393857626967 2 27.485633985857643 4.4118384206979888 2 36.324643738770312 0.7 2 41.139446495256209 4.509627928677113 2 63.740346943117927 7.0509557969953258 2 68.661323573036157 8.0396740882744417 2 69.167013796911519 2.9267854930858492 2 72.589470610869654 2.922062817604107 2 74.851146526051295 0.7 2 77.838073956219802 4.6801228866579123 2 81.070178665389037 2.7196017107931603 2 7.8389871560117328 0.7 2 13.135229556137261 1.9254384059923164 2 12.730505873216195 10.837295066314466 2 15.581585423435998 5.9477163061205625 2 23.228601265030861 2.4895398845498291 2 28.334565694982388 5.4104794545826138 2 64.167550445680575 3.5504569801616324 2 64.956069062713809 2.9287752352212242 2 72.26230516596226 9.7982069147240196 2 71.804222453552583 6.6731493008213185 2 81.194646017527646 0.7 2 10.775057189766123 4.6632950010589083 2 13.896228621202482 6.704872036798994 2 31.412825904107518 3.1285778294876176 2 31.942828050300545 3.7091809752392733 2 41.187949935700821 0.7 2 42.478546003660988 4.2049235218916836 2 63.037651618568091 7.6575993353644636 2 67.100719165529753 2.7607905702767481 2 70.555671375885623 4.3759741995866586 2 70.20753950523266 3.6417494332573992 2 75.151386603122589 3.476673027414122 2 78.693924619070458 7.2139169394562748 2 78.93727461026711 4.1273533594461735 2 92.774038534197075 6.0736435123045336 2 13.304442347795554 7.5379209631853046 2 30.712230967855707 7.680936252463102 2 75.73051719140193 6.5198497075020843 2 74.392381777424433 8.5771033573595155 2 75.726271605853242 3.778745424525904 2 26.609587207756615 2.6482141128970937 2 63.691729637254639 8.0277080746738569 2 65.797466755202706 8.2214312083049901 2 77.202802473543613 5.0995756184078909 2 12.068909508399301 2.6481018700017671 2 28.001745072773353 8.9010540843063541 2 65.349288517184249 5.1936945227679194 2 64.655778217258003 4.0329056498844276 2 9.5702975319367916 8.5381063055597952 2 12.807495402817811 10.034897557025076 2 33.239347972041081 5.1241759903723931 2 61.533973330042834 4.6626590714210181 2 69.475894655923582 6.3277855691393032 2 70.741861615683021 4.985229415408309 2 73.946303097076949 3.0239304646371554 2 79.365522200771522 7.7029063754139839 2 6.213287697236975 8.2863749348668829 2 9.373532938570575 0.7 2 15.474539872834374 6.5444578447524995 2 20.061900019863195 5.3926454843211271 2 25.75308470822695 6.2167239525698843 2 32.107678826130446 12.793801594353098 2 40.23514148920961 8.0022516802759576 2 61.935940762209214 11.490311133747717 2 61.502858975104857 3.2717654090390771 2 66.230532089208893 0.7 2 67.889459269918746 13.903903736457215 2 70.428060164983208 11.937530261923662 2 79.927957967563827 6.8278934036253922 2 7.1398257967776244 7.3983563779808463 2 16.874381954209422 4.2606600692747989 2 21.222363016434659 2.5678538456923881 2 29.558708507610252 2.786523568918839 2 34.029468946776632 0.7 2 38.679567617905612 4.6296786231337563 2 45.065086083041081 2.9322218784538667 2 48.609945854673455 4.1168949703082856 2 65.291830940366353 16.245999030292406 2 68.778989013653046 0.7 2 73.654803426638253 1.722826968483909 2 78.909045710402538 11.613755060948606 2 75.896851290785818 0.7 2 82.067447424764026 0.7 2 7.8389182672664077 4.0804925421077689 2 16.752237554084786 6.378904787123826 2 23.611100059132294 4.4991867890383492 2 27.374884887644402 10.636196043435401 2 32.939822038158596 9.2096854845445364 2 41.532824935594348 11.006696068346189 2 50.92003316265523 6.0614806414231932 2 59.284260535841149 11.39478772561913 2 63.014483769443331 9.8509455813071476 2 67.094103480377299 11.028405861427004 2 71.773401326873412 9.0956885163188357 2 73.95752730284245 6.5080719569375072 2 74.289290433620351 9.2256092700518408 2 81.854235393750628 1.7773266420255749 2 4.5294801943901861 4.0436233357985856 2 9.9196196407681718 9.3175731145596963 2 20.030399230567447 4.5723504730369493 2 29.789889471676304 2.2114546188829749 2 38.531738698141488 3.9352112242437172 2 40.530522507732442 0.7 2 45.609091678490174 3.3547189197902685 2 48.701073803123329 3.4258226151738782 2 60.460449059192456 0.7 2 66.199862707317948 11.138566113957438 2 69.833971216519757 0.7 2 81.654562013800955 2.5406471885914721 2 93.257402995182133 3.5721738308762534 2 1.8919983925921435 9.2053165656900102 2 4.0869606594690628 6.1471282006679573 2 9.3672464392852302 3.3637591285955653 2 11.202078190136399 2.9204405518164962 2 15.204765229244954 9.6536099390491081 2 17.911406682106584 9.2708845749946054 2 27.706549877413003 5.6920823009800836 2 28.13179624324825 10.412604684061993 2 31.399744847972311 13.349308996454058 2 43.621128979645974 10.891292811756539 2 59.311517008828929 10.262408323686298 2 62.541327908104073 2.5039627093832588 2 64.285743561016389 2.7290569047974689 2 71.388551609859462 7.9260843988275207 2 71.599368898538359 10.205036814086677 2 92.530142641149382 3.2856952222433549 2 94.706879319210316 7.095475721689799 2 0.7 3.2466055644631688 2 3.2883272268544874 0.7 2 7.716493018137272 9.9362880627165939 2 14.096483432804037 2.5486473915156109 2 34.268241128770853 15.984795800342209 2 26.656823239183574 0.7 2 34.824684166931064 2.0788781702475747 2 36.095579673533663 2.0218626868680487 2 44.41715394346371 2.4474574783852519 2 47.190288349504591 7.3216630037193591 2 67.182446554685725 1.8951967123518214 2 73.859709557139439 0.7 2 78.735797287453707 10.837965321492222 2 76.000240187325332 2.8314666233394363 2 81.723635998373283 3.2674372647183207 2 95.262775968402309 7.9475715782977581 2 95.473886549819923 2.7876732505630586 2 0.7 8.7054433161795259 2 6.991355952077063 8.3325550215712205 2 10.227757568409467 5.2200267748525997 2 10.584097648173898 12.673507683566827 2 16.307342408182993 5.9323628011087717 2 2
[...]
<PointData>
<DataArray Name="Points" NumberOfComponents="3" format="ascii" type="Float32">25.967565858579203 0.7 2 64.449918845167232 12.021264599191873 2 67.243615176779642 0.7 2 72.708752479262529 9.0885108582900802 2 71.895358531801989 7.2790284006070509 2 74.378904007072421 0.7 2 14.603398977184739 6.4203100598924667 2 32.175212185987867 9.698018078481919 2 72.451379559588361 7.8421771291720033 2 67.002607316474908 7.2882992419166648 2 28.008939621522217 3.4094793626107314 2 71.800014363132433 4.3314818046184822 2 71.229418160902767 6.1512455610311498 2 76.799201841604329 4.4801363127304494 2 80.645293825865906 10.642011373979447 2 11.162338878224507 7.9547088865140223 2 27.581852523298473 9.5761879667772885 2 30.786470638086374 8.9327951337276517 2 40.780547907853936 6.6795714031471984 2 72.098547046083354 8.4368628542675399 2 73.109858562926945 8.6326335112037853 2 76.964330685207798 6.4223019373455159 2 77.066453433234898 0.7 2 28.738162644384776 3.164085693201192 2 61.022618587106109 4.1567802625426635 2 64.658589949619085 8.9493857352935819 2 69.173067469579138 7.1857292882505615 2 75.589635714317296 11.375285647173746 2 77.747619089485525 6.7905941337577476 2 11.368167852635143 3.7317877731876177 2 13.949864665028967 10.654222762743757 2 27.37883106253113 8.5445419769886204 2 30.708759429616052 5.8738704985903682 2 35.406578669979105 8.2116103511322809 2 63.155665730754549 3.3605659537277908 2 66.731836555042875 0.7 2 68.590518706881909 9.0796649707033499 2 74.956141391278351 10.609640858876645 2 10.506436173765314 8.4447023102879726 2 15.325701771489221 10.885098887342611 2 24.675774198571538 9.693059832645643 2 30.877696170313161 2.6235297896944432 2 61.798808101412945 8.5156540228451156 2 67.845319969622381 3.0542243029636413 2 63.699984256770726 8.7567517787539124 2 71.318462578808749 4.9740061964596887 2 74.357338419539332 1.7819560480422727 2 79.876356454270024 11.008750353604839 2 78.581454656929679 2.6381476900144714 2 13.662443097543683 0.7 2 12.795910483453579 8.333988108979371 2 26.479406833697674 8.3723295382330871 2 30.055145430372963 6.6899211732905099 2 31.528697509319866 5.6745776092617604 2 34.741732799424874 8.0861069936249859 2 40.891960811866532 7.5444195899617856 2 44.46225288182832 6.015868049822453 2 62.073432409416363 3.5879544226775741 2 63.357141242515596 2.0060198288418847 2 72.621872554474749 6.5581195971966668 2 74.884105722655221 10.018466844364196 2 78.55456536270853 3.432853160867952 2 80.797090965716393 9.8045841715615136 2 16.802951689685031 3.3291326173477112 2 27.307374807767879 3.7382125918152758 2 29.190467227533762 3.5475599155901669 2 41.96479586275062 5.6492090367275223 2 62.86494280298357 8.7952640517878233 2 68.393868663542264 7.4080600176839333 2 66.562137512993942 1.6421971901414107 2 77.769126776369689 7.7321318436418691 2 10.212639525376673 3.8843566066321191 2 14.458360271459037 0.7 2 17.467307302168781 3.8797338383450151 2 28.263137711729328 4.2578752176673289 2 28.809972603309831 6.4764382330273698 2 63.608272562346265 2.7370981682699331 2 66.455000993060864 2.3915164955668065 2 73.573432977015685 2.4380440320408798 2 77.830703616126513 0.7 2 7.5842175367424192 5.0700532770710742 2 14.738294269026335 5.7562225385664032 2 30.232559399639019 3.0125975215528924 2 31.524024050560193 4.4016323179978647 2 44.46192814491436 6.6830435896114633 2 62.51370682220923 8.2724819512927823 2 69.630899242821855 5.5441915949788632 2 68.311180268880932 10.523670578877729 2 70.2651902812092 5.4109726700194773 2 71.170804231470143 4.0004456771486252 2 75.997187958420582 4.5139841169810619 2 79.97189873095995 10.011030134306823 2 6.9938244590668806 0.7 2 10.748765492702439 3.4533895734956834 2 13.684462891175816 5.7923840911843358 2 16.117373364888067 11.186784060331476 2 23.551237466442881 6.6570547486461757 2 30.846498330970157 6.5384883622943812 2 42.026135660313138 4.8061226458642183 2 62.563673745275082 3.0663633524628842 2 63.080127305672171 0.7 2 76.553056580615163 5.4050368481464313 2 75.855795316380068 10.51828924730062 2 78.192034926997863 0.96953475597937988 2 79.876091144785121 9.1905831462107557 2 7.0169326908647198 5.4099034527448353 2 13.786259150723259 4.5232393857626967 2 27.485633985857643 4.4118384206979888 2 36.324643738770312 0.7 2 41.139446495256209 4.509627928677113 2 63.740346943117927 7.0509557969953258 2 68.661323573036157 8.0396740882744417 2 69.167013796911519 2.9267854930858492 2 72.589470610869654 2.922062817604107 2 74.851146526051295 0.7 2 77.838073956219802 4.6801228866579123 2 81.070178665389037 2.7196017107931603 2 7.8389871560117328 0.7 2 13.135229556137261 1.9254384059923164 2 12.730505873216195 10.837295066314466 2 15.581585423435998 5.9477163061205625 2 23.228601265030861 2.4895398845498291 2 28.334565694982388 5.4104794545826138 2 64.167550445680575 3.5504569801616324 2 64.956069062713809 2.9287752352212242 2 72.26230516596226 9.7982069147240196 2 71.804222453552583 6.6731493008213185 2 81.194646017527646 0.7 2 10.775057189766123 4.6632950010589083 2 13.896228621202482 6.704872036798994 2 31.412825904107518 3.1285778294876176 2 31.942828050300545 3.7091809752392733 2 41.187949935700821 0.7 2 42.478546003660988 4.2049235218916836 2 63.037651618568091 7.6575993353644636 2 67.100719165529753 2.7607905702767481 2 70.555671375885623 4.3759741995866586 2 70.20753950523266 3.6417494332573992 2 75.151386603122589 3.476673027414122 2 78.693924619070458 7.2139169394562748 2 78.93727461026711 4.1273533594461735 2 92.774038534197075 6.0736435123045336 2 13.304442347795554 7.5379209631853046 2 30.712230967855707 7.680936252463102 2 75.73051719140193 6.5198497075020843 2 74.392381777424433 8.5771033573595155 2 75.726271605853242 3.778745424525904 2 26.609587207756615 2.6482141128970937 2 63.691729637254639 8.0277080746738569 2 65.797466755202706 8.2214312083049901 2 77.202802473543613 5.0995756184078909 2 12.068909508399301 2.6481018700017671 2 28.001745072773353 8.9010540843063541 2 65.349288517184249 5.1936945227679194 2 64.655778217258003 4.0329056498844276 2 9.5702975319367916 8.5381063055597952 2 12.807495402817811 10.034897557025076 2 33.239347972041081 5.1241759903723931 2 61.533973330042834 4.6626590714210181 2 69.475894655923582 6.3277855691393032 2 70.741861615683021 4.985229415408309 2 73.946303097076949 3.0239304646371554 2 79.365522200771522 7.7029063754139839 2 6.213287697236975 8.2863749348668829 2 9.373532938570575 0.7 2 15.474539872834374 6.5444578447524995 2 20.061900019863195 5.3926454843211271 2 25.75308470822695 6.2167239525698843 2 32.107678826130446 12.793801594353098 2 40.23514148920961 8.0022516802759576 2 61.935940762209214 11.490311133747717 2 61.502858975104857 3.2717654090390771 2 66.230532089208893 0.7 2 67.889459269918746 13.903903736457215 2 70.428060164983208 11.937530261923662 2 79.927957967563827 6.8278934036253922 2 7.1398257967776244 7.3983563779808463 2 16.874381954209422 4.2606600692747989 2 21.222363016434659 2.5678538456923881 2 29.558708507610252 2.786523568918839 2 34.029468946776632 0.7 2 38.679567617905612 4.6296786231337563 2 45.065086083041081 2.9322218784538667 2 48.609945854673455 4.1168949703082856 2 65.291830940366353 16.245999030292406 2 68.778989013653046 0.7 2 73.654803426638253 1.722826968483909 2 78.909045710402538 11.613755060948606 2 75.896851290785818 0.7 2 82.067447424764026 0.7 2 7.8389182672664077 4.0804925421077689 2 16.752237554084786 6.378904787123826 2 23.611100059132294 4.4991867890383492 2 27.374884887644402 10.636196043435401 2 32.939822038158596 9.2096854845445364 2 41.532824935594348 11.006696068346189 2 50.92003316265523 6.0614806414231932 2 59.284260535841149 11.39478772561913 2 63.014483769443331 9.8509455813071476 2 67.094103480377299 11.028405861427004 2 71.773401326873412 9.0956885163188357 2 73.95752730284245 6.5080719569375072 2 74.289290433620351 9.2256092700518408 2 81.854235393750628 1.7773266420255749 2 4.5294801943901861 4.0436233357985856 2 9.9196196407681718 9.3175731145596963 2 20.030399230567447 4.5723504730369493 2 29.789889471676304 2.2114546188829749 2 38.531738698141488 3.9352112242437172 2 40.530522507732442 0.7 2 45.609091678490174 3.3547189197902685 2 48.701073803123329 3.4258226151738782 2 60.460449059192456 0.7 2 66.199862707317948 11.138566113957438 2 69.833971216519757 0.7 2 81.654562013800955 2.5406471885914721 2 93.257402995182133 3.5721738308762534 2 1.8919983925921435 9.2053165656900102 2 4.0869606594690628 6.1471282006679573 2 9.3672464392852302 3.3637591285955653 2 11.202078190136399 2.9204405518164962 2 15.204765229244954 9.6536099390491081 2 17.911406682106584 9.2708845749946054 2 27.706549877413003 5.6920823009800836 2 28.13179624324825 10.412604684061993 2 31.399744847972311 13.349308996454058 2 43.621128979645974 10.891292811756539 2 59.311517008828929 10.262408323686298 2 62.541327908104073 2.5039627093832588 2 64.285743561016389 2.7290569047974689 2 71.388551609859462 7.9260843988275207 2 71.599368898538359 10.205036814086677 2 92.530142641149382 3.2856952222433549 2 94.706879319210316 7.095475721689799 2 0.7 3.2466055644631688 2 3.2883272268544874 0.7 2 7.716493018137272 9.9362880627165939 2 14.096483432804037 2.5486473915156109 2 34.268241128770853 15.984795800342209 2 26.656823239183574 0.7 2 34.824684166931064 2.0788781702475747 2 36.095579673533663 2.0218626868680487 2 44.41715394346371 2.4474574783852519 2 47.190288349504591 7.3216630037193591 2 67.182446554685725 1.8951967123518214 2 73.859709557139439 0.7 2 78.735797287453707 10.837965321492222 2 76.000240187325332 2.8314666233394363 2 81.723635998373283 3.2674372647183207 2 95.262775968402309 7.9475715782977581 2 95.473886549819923 2.7876732505630586 2 0.7 8.7054433161795259 2 6.991355952077063 8.3325550215712205 2 10.227757568409467 5.2200267748525997 2 10.584097648173898 12.673507683566827 2 16.307342408182993 5.9323628011087717 2 23.221752125473031 5.5368623289945607 2 28.369234749747456 13.803063404925696 2 32.869971883563665 13.168013683568475 2 42.453944233901012 10.523206342051509 2 44.004878957498065 11.963739427205201 2 50.724161840227268 4.9221489401491674 2 63.730555109361241 9.3399135380939313 2 66.382353823499216 14.019101425628836 2 69.677003033003601 12.035362404643587 2 72.45406700254442 3.7131600407801462 2 73.488089293611011 13.323166031982204 2 78.886003658422695 0.7 2 93.37607786538122 0.7 2 2.2029130089024447 2.8364993734962805 2 5.0725153841993835 3.2328989929032468 2 15.020926007091377 2.9191508996953286 2 21.095238502900205 5.049687995357492 2 26.704107755480045 1.5164290199901831 2 26.290236178647568 10.990782611048873 2 33.429159838511055 12.378742605028691 2 33.337627888439172 0.7 2 41.939301235614764 0.7 2 43.454111419949975 4.0053134975346198 2 59.79981526260417 3.4846012971270142 2 64.937543923021863 11.085245410333755 2 71.654108404697013 3.5872084684820948 2 79.367137927710701 3.1432758241392387 2 93.205069907655584 2.7062781260594471 2 4.8441855458879211 6.4171468646144172 2 9.4231257092385583 2.4590244124343288 2 13.712530303721614 1.3597243780597594 2 12.035187704130925 8.0299788803393657 2 15.991660900710388 8.8153419816481691 2 20.606823142760057 7.8314128242038095 2 24.752862239078759 6.6223072411692305 2 29.020362723374188 8.9957581838691389 2 33.981124011916769 8.8860427157099 2 34.452612921800103 5.4545250099775613 2 40.834783142724383 8.5007139953388737 2 41.788030434967297 8.1101281222436601 2 44.670947790263639 9.4655841605761921 2 50.18650563632945 7.0401071304659135 2 60.048335541912813 14.599037713932052 2 61.939274513211195 0.7 2 65.405950138414113 0.7 2 68.647715406231626 14.313018512036525 2 70.537878829623381 6.0786764036148409 2 72.95048077949366 7.2650511558554465 2 71.265288672348561 12.514222421299584 2 76.333598222729123 9.6162734108421297 2 77.98710879783215 1.9024398919488479 2 80.419345858304325 5.835365207383771 2 84.579731994688757 3.5103265918432367 2 97.227555897942977 6.6027449854285951 2 0.7 0.7 2 6.2960586381033874 0.7 2 8.2769779817655653 7.5413219966822354 2 16.339454974530739 5.1972870815220542 2 15.499306790480398 14.120407807042289 2 19.377190958517939 4.2741599565017321 2 25.319996639493681 3.5164502649291549 2 30.676603065819972 1.9584085273348464 2 37.690670250290431 4.2022992319384764 2 41.359892897293086 3.8792720755914831 2 44.241917557443109 0.7 2 47.845363200999479 3.4267446612905155 2 59.743774554870257 6.6476916596622457 2 65.837147908333137 5.6349416898904856 2 68.184586660893316 9.8561241063754537 2 69.840603305123366 1.9004335243591128 2 73.437708976500787 0.7 2 77.566706074485978 13.861755348807472 2 77.466946403790843 1.451055476344103 2 80.26428227594613 4.7584823273249803 2 96.98490474773395 5.756032019970867 2 7.3023146454593171 3.6433511310756561 2 13.660760233904716 3.4929275114112919 2 10.506482772792296 10.335838520617974 2 17.273836079195203 7.1744667471011807 2 24.601988587608727 3.8794848511251829 2 26.852396897035096 6.2461592957577166 2 28.395137815331285 12.828174320369957 2 29.313417417853813 5.9540201074146077 2 35.415789930396045 9.2674367614670512 2 37.880554314738824 7.7666531814615549 2 42.398548890544049 8.8744150637750003 2 48.617918445453483 7.1595824912945307 2 57.788326678316068 13.341237558194329 2 62.347192509796827 9.3811472585683955 2 64.557879343853045 6.2266585362491629 2 67.500903159504446 4.3024647420204092 2 67.428549815145857 13.317965556491883 2 69.129522012043253 10.944756915636646 2 71.652391820714229 5.6265298971764928 2 76.144225171391298 15.887189461649387 2 73.668908118031496 9.4677911933898944 2 81.400746756506479 1.2777909591959569 2 79.730231010923561 11.94750040406727 2 96.737347951519766 11.451850901838181 2 2.3395253096240927 5.3849756680407701 2 5.8512217277659655 5.8205774422549466 2 9.3350177777551533 7.835634653219131 2 10.701997093436246 11.598924106360688 2 14.699505887270623 10.19235527663551 2 19.974100810468627 3.2451839799480648 2 29.963558780350162 0.7 2 32.592132545269003 4.2103332079883788 2 38.624723115338789 3.2072905434171388 2 42.814923850067288 0.7 2 44.665724809130808 5.3977590723498672 2 48.996241520325789 2.7712771767119766 2 55.261995672023446 2.9432527798533488 2 60.243531736862629 1.0887776333527177 2 62.993416040296403 6.6770327333425472 2 68.368600047258084 6.6864104616533364 2 64.826888344921514 12.74906658384192 2 68.703082560558073 5.5376655445258152 2 71.327255207341594 0.7 2 75.044505066309341 4.3796754733189198 2 79.154982910519479 10.283562307625415 2 81.032841933223494 3.6907007313128557 2 96.241040920231569 0.7 2 2.7502165957478697 9.2890355406959397 2 5.3363966730165551 8.7099194543814047 2 8.7107083153924094 3.2528549854466888 2 10.270492383524974 0.7 2 17.198726498212643 8.5948982633828539 2 18.037952175235706 7.5299744680345251 2 27.347887231020749 4.9759269484795912 2 28.581417452569262 9.5574665860929127 2 31.38145362283252 9.6902904965375143 2 31.462528230399517 6.7198126080898257 2 43.240814642998998 10.077390810022544 2 62.018649607006942 10.533229427515115 2 61.681761995045456 2.475208816029749 2 64.078842492983469 0.7 2 71.076369840091687 9.2585385175757438 2 71.313847880193364 11.254721531870423 2 81.915138732868357 7.6169182288676742 2 91.74406198761487 6.20918850309286 2 95.380852117014996 6.8079555387885309 2 0.7 2.3613429614864687 2 4.8639447834176233 0.7 2 9.0369759234758043 9.4894608276955026 2 12.410734487588524 14.258055733921195 2 14.423937280098764 3.1281582419004419 2 19.943647377035251 0.7 2 27.357947073573808 0.7 2 34.1489758970229 1.4981367160299832 2 36.517634611706775 2.5834920339100145 2 39.670520562693845 4.1721073773444024 2 44.298852901742912 3.4743716713751325 2 47.705864497394423 6.9645876035467396 2 56.378902179944738 3.5949715682101084 2 60.373730684664203 7.9892022502083417 2 61.947639074690869 15.35849930211231 2 69.362277597301429 0.7 2 72.516256747186844 0.7 2 77.789997611329397 10.721563533258959 2 74.389626783050389 2.4697685938674603 2 82.426302815919527 2.3332115111363243 2 94.762403814611801 8.3473834746057687 2 96.914559819669236 2.9915868258423952 2 0.7 9.5588887823679762 2 9.265614692122119 5.3944989927466693 2 11.567391327319328 10.981434480943401 2 17.15102574381827 5.0575532239061545 2 22.199779155676069 2.8784170665584821 2 28.41884485263073 11.364249004517074 2 31.026318547423234 5.1787600400677229 2 33.163255615050048 9.9631400272406783 2 38.29871849004185 5.9578415296366058 2 49.625351743877829 3.5012894909911458 2 68.703508090088178 12.969811669148411 2 74.208917840602609 5.2604833923427918 2 74.667855568993701 11.363240433613006 2 80.344822946915286 0.7 2 0.7 4.6742301749584145 2 3.8300245942524178 5.1120813280374584 2 14.193589297166183 1.7963265603710608 2 22.558286418545766 5.1565768034291279 2 26.670127083989673 3.5133622143683367 2 34.464225085438848 12.230577144559732 2 30.524722694818571 0.7 2 45.204932715052742 0.7 2 43.955819950013996 4.7842909205662272 2 57.109076019162757 4.1710229597155415 2 59.54646335383066 2.606574501630937 2 64.221069134886989 10.046406140235629 2 69.688091823732705 3.0676265255492265 2 80.884400863734925 4.5840709634631649 2 91.871333420699415 3.6620191830730202 2 96.293773934454734 2.1767168744944851 2 12.556893182866418 6.1539461100336403 2 32.321678575807574 7.5351327988659147 2 43.584485512365482 6.1277882011068439 2 74.898151399643297 6.175271713164852 2 77.580142142454804 8.5694682247783724 2 76.184680324588371 3.4471425764555423 2 25.756701529963507 2.5872484476078346 2 64.665620560402175 8.2450922142012413 2 66.648829264739078 8.5623858412602889 2 78.522756276712229 4.6880043128601834 2 14.067414828798317 5.2613031127096548 2 28.029673964622269 6.3499531407368996 2 62.046529428250963 4.1734500433775441 2 66.398510821941898 4.7830008284030532 2 11.618276349788449 5.7582517869215151 2 14.24582261316926 7.2158439751779699 2 32.22538564454689 4.6563376242361416 2 61.86367474061764 5.4062071170846764 2 65.872449245951984 6.3967147079470745 2 67.382498336214411 3.6819016091358536 2 74.684966829631833 5.6486969641581322 2 76.591259734299157 10.523105271099157 2 2.6830250414834942 7.9898489762376652 2 6.6158264012682544 6.1122242646491989 2 8.5594107667314372 2.4293086243299569 2 11.60169602155683 0.7 2 13.351473517159858 6.4120036070460049 2 15.713332268176009 7.1270350381517673 2 20.602138344813326 5.7083836105469841 2 24.338440271226673 7.2350929102952 2 29.957457937915542 8.6126280279053802 2 33.388026205009744 7.371200474195156 2 35.197485903433709 7.2130782008708652 2 38.603143662356977 10.255286983491469 2 41.504477124853054 6.3078447964069291 2 44.76836720901894 7.5107066605647859 2 49.513706691183707 7.6951830292162589 2 61.62701106417223 12.382138002976751 2 60.585336674779924 1.999155787441308 2 64.595061276886966 0.7 2 69.773431915823693 8.0856112526795254 2 73.576288812115365 8.1781279054747582 2 72.739783538771547 12.967805881020078 2 75.206582246670919 9.4541942072217644 2 77.960297207605663 4.0515097639570161 2 81.099230876569081 6.9868138833231628 2 85.606970960585855 4.9585944688424233 2 95.859454733272202 7.8333722703183035 2 1.6359284070602211 0.7 2 4.2304300556289443 1.2626724108725462 2 7.2982886362926473 6.6281032486067124 2 14.182179430667748 3.9039795551327092 2 14.97591622516974 13.014212538438189 2 20.597713285693789 2.8308884132949337 2 25.938455498419959 3.2643471364458878 2 27.787876296753989 14.914049059215378 2 30.147155389504345 1.6005797064458043 2 34.74281510698119 0.7 2 38.139333108288852 5.0562798937138362 2 40.257510876544686 1.4944778901031166 2 44.610736451106234 1.4972481031735927 2 46.649205494990028 3.4717824940464714 2 57.54168437185605 0.7 2 60.977530951967701 5.3944980334175412 2 67.677972494101482 6.9986962632259893 2 67.514777018041698 10.483947503126631 2 64.856765186357563 15.44617973948864 2 69.428130641078141 1.5924379382491318 2 72.9921463401799 2.587327241078103 2 78.807029559188024 14.680591344789539 2 75.45854714609635 2.564514801023726 2 77.916747989697711 5.4599378033190726 2 83.992185696517041 1.7082674315985846 2 83.006290426318373 15.372720471765104 2 97.0697622887686