<?xml version="1.0" ?>
<VTKFile byte_order="LittleEndian" type="UnstructuredGrid" version="0.1">
<UnstructuredGrid>
<Piece NumberOfCells="0" NumberOfPoints="151">
<Points>
<DataArray NumberOfComponents="3" format="ascii" type="Float32">3.0743629781766333 7.3507765477544424 2 6.7451906150254928 1.997434169218109 2 18.239034296276827 9.6854578381510308 2 20.620560618958184 1 2 24.703477056425491 2.0188450070221697 2 38.049352909322231 8.851160378141067 2 40.825871685527844 12.043903220454011 2 46.201720034278786 4.6774906612169298 2 50.069517616895887 2.406125177585094 2 50.649005125212042 6.0129953923995174 2 54.80104007966581 9.1179197916067203 2 57.252830182786212 6.6784876829415003 2 59.844535981357538 8.2085982303660412 2 83.257141419588137 4.1011836073571031 2 86.811911851514751 8.1977496953686799 2 90.280809291833123 7.1979295100217922 2 90.944257695095374 9.8015093835357323 2 93.721966462451505 10.843998239756004 2 99.0 1 2 2.8941392034766262 2.5213874177005282 2 8.8639035403885078 9.1540406215759447 2 18.752733645722817 4.6280468735007592 2 22.601791259904537 10.675368241369751 2 23.754017765002128 7.5665204600515743 2 36.679085522385705 1 2 39.951059562342607 1 2 45.837118624447569 6.4846462118961403 2 48.048366835130807 11.082557694337394 2 51.737661639308904 2.7767721606591915 2 53.292565264903381 2.2729472132175679 2 55.348611585119045 12.770090531739493 2 58.914819406620026 1 2 83.041638411314239 6.6344062734127105 2 86.240552295545726 4.0138357027063485 2 87.564002627041432 4.7327151481175695 2 90.973922239271346 1 2 95.378846512045371 4.2365467486980783 2 99.0 6.9524414596262893 2 3.7689322001570296 11.044827862093355 2 7.4192747738695362 3.8048348925169844 2 18.579395485615404 11.594188193426536 2 21.645378270124088 3.7243143512261163 2 22.823073661120851 2.4215865814540534 2 35.609604112724625 6.3730006535294912 2 38.027380995888784 10.640732641341629 2 45.635114918243872 1 2 52.21138139114958 5.0033737904901159 2 51.447649509384526 9.5020126405598333 2 53.068793895781901 8.4838881113265092 2 55.648744819760438 5.954672863017155 2 57.828244228529464 5.3316307687119382 2 83.331501739559442 1 2 85.236875231172093 7.3968179247959673 2 89.316400203527621 10.88875537984984 2 91.912721372297753 8.2610564921031333 2 94.800345573274271 12.443220893765419 2 98.105054668663868 5.637514215607009 2 3.0929915845140061 4.3609112094937963 2 6.8650347317959621 11.792103467592304 2 16.883538827831703 2.2312666362481277 2 22.157388951427897 12.490401392024225 2 20.917973061744387 7.1086242689179002 2 36.022771984819819 4.5981581213271241 2 38.919369061964602 5.4208661536418949 2 47.343789821960087 9.3054281559207492 2 51.631425378505611 11.639371009121678 2 53.387988122900261 3.7366268175514952 2 55.8113733593201 1 2 53.103787649317155 10.395546589496973 2 59.133898759904959 4.7095304028649396 2 84.260900872256585 9.6405135208112736 2 86.426757986470292 1 2 88.769669045764843 2.4654512309058885 2 89.11630075046196 4.0964873479721691 2 94.910496547065534 2.6202217344442782 2 99.0 10.239591725429737 2 4.0322093099985254 5.7995039620683055 2 19.7982679981423 8.4832957460034724 2 21.130477589377882 2.4125454844251917 2 23.851109875228587 1 2 36.375203588825428 9.5875591491654557 2 42.780324140035098 12.378680461221744 2 46.424080667090301 2.7252082245149611 2 50.840025068762102 1 2 51.879320628073103 7.1496345568203488 2 56.602517594396737 9.5310918113378076 2 56.201187327833779 7.8343280024753552 2 59.005652799410157 6.5965827329195221 2 82.438225653975991 5.3732957016406555 2 88.466081052882913 7.5380584240800008 2 89.458262276300076 8.9094130132878906 2 91.924104082770612 11.334143447840267 2 93.734582794971942 9.0032847724972154 2 98.37184332763222 2.6086417809134947 2 3.6325967500731311 1 2 7.2277308475124942 9.8834310474450984 2 18.328060193781795 2.7981005456839565 2 23.988751747103702 11.972979848803536 2 23.607036511303026 9.2271911579144081 2 35.402360986294845 2.2306635835306832 2 39.254835169986976 2.2449696477864074 2 47.259485339011171 7.6208139640985966 2 49.943822228169431 10.678697121517242 2 52.408794740307044 1 2 54.186904456985374 1 2 56.75564260822356 11.412513053461733 2 58.4054924277929 2.2667161205604898 2 81.939649277974951 7.6517733588553796 2 85.812037827174862 5.6227052687261816 2 87.301178094339079 2.7712145200926774 2 90.321614236561061 2.845195784422109 2 94.247151923891536 5.7039193148023877 2 98.450486685425119 8.5718615565299636 2 4.0955132798913327 9.099593600339805 2 6.0128521515980964 3.5744049546494647 2 17.745704463845541 13.330655592488927 2 22.485710404906374 6.1583906139605791 2 22.210818514891923 1 2 36.827269033588699 7.6581207834543514 2 38.853423228186834 12.357276661842764 2 47.279804241579214 1 2 50.734703646848679 4.185423734378162 2 50.499469204016314 7.9541897195122484 2 53.203765124504329 6.5119502957208644 2 54.565506519972011 7.334028865357908 2 57.946817384771428 3.6184475466332473 2 84.042619381785329 2.5509414518497091 2 87.095684676003245 6.4735842906976648 2 87.82120267758016 9.7128629508625632 2 91.856647829527532 6.3895873040613607 2 96.732158990057584 12.812604793952762 2 99.0 4.142129049950495 2 2.3211125848772243 5.8852376362841827 2 8.4983369856686508 12.942298863824682 2 17.684824041568945 1 2 20.300695623900705 12.29114943964758 2 22.226623841809158 8.0144875113320371 2 34.599883387735439 4.762218453466879 2 39.073662366087405 3.6378637877162179 2 46.063510327573468 10.438550195592125 2 51.030357768356964 13.506157691317958 2 54.086790127207635 5.2531556425775179 2 54.936365825084849 2.5168927785972621 2 54.893127224831268 10.926414572856766 2 59.707283156890412 3.1334392827664441 2 83.630674255185184 8.1149673533478079 2 87.895083669765313 1 2 89.507359274457883 1 2 88.887976131162063 5.8855967922575623 2 94.182149242016848 1 2 97.396482764165768 11.008564648495929 2 </DataArray>
</Points>
<Cells>
<DataArray Name="connectivity" format="ascii" type="Int32">0</DataArray>
<DataArray Name="offsets" format="ascii" type="Int32">0</DataArray>
<DataArray Name="types" format="ascii" type="UInt8">1</DataArray>
</Cells>
<PointData>
<DataArray Name="Points" NumberOfComponents="3" format="ascii" type="Float32">3.0743629781766333 7.3507765477544424 2 6.7451906150254928 1.997434169218109 2 18.239034296276827 9.6854578381510308 2 20.620560618958184 1 2 24.703477056425491 2.0188450070221697 2 38.049352909322231 8.851160378141067 2 40.825871685527844 12.043903220454011 2 46.201720034278786 4.6774906612169298 2 50.069517616895887 2.406125177585094 2 50.649005125212042 6.0129953923995174 2 54.80104007966581 9.1179197916067203 2 57.252830182786212 6.6784876829415003 2 59.844535981357538 8.2085982303660412 2 83.257141419588137 4.1011836073571031 2 86.811911851514751 8.1977496953686799 2 90.280809291833123 7.1979295100217922 2 90.944257695095374 9.8015093835357323 2 93.721966462451505 10.843998239756004 2 99.0 1 2 2.8941392034766262 2.5213874177005282 2 8.8639035403885078 9.1540406215759447 2 18.752733645722817 4.6280468735007592 2 22.601791259904537 10.675368241369751 2 23.754017765002128 7.5665204600515743 2 36.679085522385705 1 2 39.951059562342607 1 2 45.837118624447569 6.4846462118961403 2 48.048366835130807 11.082557694337394 2 51.737661639308904 2.7767721606591915 2 53.292565264903381 2.2729472132175679 2 55.348611585119045 12.770090531739493 2 58.914819406620026 1 2 83.041638411314239 6.6344062734127105 2 86.240552295545726 4.0138357027063485 2 87.564002627041432 4.7327151481175695 2 90.973922239271346 1 2 95.378846512045371 4.2365467486980783 2 99.0 6.9524414596262893 2 3.7689322001570296 11.044827862093355 2 7.4192747738695362 3.8048348925169844 2 18.579395485615404 11.594188193426536 2 21.645378270124088 3.7243143512261163 2 22.823073661120851 2.4215865814540534 2 35.609604112724625 6.3730006535294912 2 38.027380995888784 10.640732641341629 2 45.635114918243872 1 2 52.21138139114958 5.0033737904901159 2 51.447649509384526 9.5020126405598333 2 53.068793895781901 8.4838881113265092 2 55.648744819760438 5.954672863017155 2 57.828244228529464 5.3316307687119382 2 83.331501739559442 1 2 85.236875231172093 7.3968179247959673 2 89.316400203527621 10.88875537984984 2 91.912721372297753 8.2610564921031333 2 94.800345573274271 12.443220893765419 2 98.105054668663868 5.637514215607009 2 3.0929915845140061 4.3609112094937963 2 6.8650347317959621 11.792103467592304 2 16.883538827831703 2.2312666362481277 2 22.157388951427897 12.490401392024225 2 20.917973061744387 7.1086242689179002 2 36.022771984819819 4.5981581213271241 2 38.919369061964602 5.4208661536418949 2 47.343789821960087 9.3054281559207492 2 51.631425378505611 11.639371009121678 2 53.387988122900261 3.7366268175514952 2 55.8113733593201 1 2 53.103787649317155 10.395546589496973 2 59.133898759904959 4.7095304028649396 2 84.260900872256585 9.6405135208112736 2 86.426757986470292 1 2 88.769669045764843 2.4654512309058885 2 89.11630075046196 4.0964873479721691 2 94.910496547065534 2.6202217344442782 2 99.0 10.239591725429737 2 4.0322093099985254 5.7995039620683055 2 19.7982679981423 8.4832957460034724 2 21.130477589377882 2.4125454844251917 2 23.851109875228587 1 2 36.375203588825428 9.5875591491654557 2 42.780324140035098 12.378680461221744 2 46.424080667090301 2.7252082245149611 2 50.840025068762102 1 2 51.879320628073103 7.1496345568203488 2 56.602517594396737 9.5310918113378076 2 56.201187327833779 7.8343280024753552 2 59.005652799410157 6.5965827329195221 2 82.438225653975991 5.3732957016406555 2 88.466081052882913 7.5380584240800008 2 89.458262276300076 8.9094130132878906 2 91.924104082770612 11.334143447840267 2 93.734582794971942 9.0032847724972154 2 98.37184332763222 2.6086417809134947 2 3.6325967500731311 1 2 7.2277308475124942 9.8834310474450984 2 18.328060193781795 2.7981005456839565 2 23.988751747103702 11.972979848803536 2 23.607036511303026 9.2271911579144081 2 35.402360986294845 2.2306635835306832 2 39.254835169986976 2.2449696477864074 2 47.259485339011171 7.6208139640985966 2 49.943822228169431 10.678697121517242 2 52.408794740307044 1 2 54.186904456985374 1 2 56.75564260822356 11.412513053461733 2 58.4054924277929 2.2667161205604898 2 81.939649277974951 7.6517733588553796 2 85.812037827174862 5.6227052687261816 2 87.301178094339079 2.7712145200926774 2 90.321614236561061 2.845195784422109 2 94.247151923891536 5.7039193148023877 2 98.450486685425119 8.5718615565299636 2 4.0955132798913327 9.099593600339805 2 6.0128521515980964 3.5744049546494647 2 17.745704463845541 13.330655592488927 2 22.485710404906374 6.1583906139605791 2 22.210818514891923 1 2 36.827269033588699 7.6581207834543514 2 38.853423228186834 12.357276661842764 2 47.279804241579214 1 2 50.734703646848679 4.185423734378162 2 50.499469204016314 7.9541897195122484 2 53.203765124504329 6.5119502957208644 2 54.565506519972011 7.334028865357908 2 57.946817384771428 3.6184475466332473 2 84.042619381785329 2.5509414518497091 2 87.095684676003245 6.4735842906976648 2 87.82120267758016 9.7128629508625632 2 91.856647829527532 6.3895873040613607 2 96.732158990057584 12.812604793952762 2 99.0 4.142129049950495 2 2.3211125848772243 5.8852376362841827 2 8.4983369856686508 12.942298863824682 2 17.684824041568945 1 2 20.300695623900705 12.29114943964758 2 22.226623841809158 8.0144875113320371 2 34.599883387735439 4.762218453466879 2 39.073662366087405 3.6378637877162179 2 46.063510327573468 10.438550195592125 2 51.030357768356964 13.506157691317958 2 54.086790127207635 5.2531556425775179 2 54.936365825084849 2.5168927785972621 2 54.893127224831268 10.926414572856766 2 59.707283156890412 3.1334392827664441 2 83.630674255185184 8.1149673533478079 2 87.895083669765313 1 2 89.507359274457883 1 2 88.887976131162063 5.8855967922575623 2 94.182149242016848 1 2 97.396482764165768 11.008564648495929 2 </DataArray>
<DataArray Name="forces" NumberOfComponents="3" format="ascii" type="Float32">-0.029816523908104714 0.075788645453328446 0.0 -0.038417200191222245 0.081471016736869434 0.0 0.036818677577804243 0.091738750909530986 0.0 0.0014673073505453438 -0.6542210533496382 0.0 -0.06885652348545826 0.067689751627114478 0.0 0.013915074196289373 0.11138291475688382 0.0 0.039284426774793185 0.097069263746715498 0.0 0.017815099083771074 0.041358958017550851 0.0 0.0019741879901597204 0.03040330174982403 0.0 -0.025754360884347752 0.076414603875890497 0.0 -0.06034381366778712 0.098725956198412124 0.0 -0.01929175109160039 0.12892156269342964 0.0 -0.065392712181387494 0.15586731783699745 0.0 0.055449656098438105 0.043661099510597046 0.0 -0.029878308369632733 0.094315747136476308 0.0 0.0047776783810849419 0.066990823396459342 0.0 0.068502189523496404 0.1135442729714668 0.0 -0.050167078400650045 0.084282406332797807 0.0 0.48439197820343638 -0.25337994780579842 0.0 -0.029886426915756173 0.0536438863033529 0.0 -0.012121672821931967 0.11064672247971145 0.0 0.023101316817722928 0.031244995852303073 0.0 -0.022634936744710094 0.15541626241042861 0.0 0.0027077084239711113 0.10753142014345991 0.0 0.094204107380362778 -0.18604421522817272 0.0 0.061649396119691668 -0.5729471057164226 0.0 -0.020127840113579654 0.058114107996650156 0.0 -0.028386875516347158 0.097517087983623338 0.0 -0.015773470124014977 0.012188619078930762 0.0 -0.019672380750627327 0.038956848128683476 0.0 -0.0089966740314011001 0.13245377135724024 0.0 -0.097672036864221101 -0.58920891042715828 0.0 0.052798146145958069 0.12633496789160387 0.0 0.037725767836629676 0.028242714375547817 0.0 0.033470304644522025 0.004996421809221524 0.0 0.017076954236876982 -0.27165348769684011 0.0 0.033894451244887734 0.032239262828327467 0.0 0.42622119989019547 0.05034251737542339 0.0 -0.040925652947622217 0.088757424584224018 0.0 -0.015143507247957488 0.093733664070612746 0.0 0.022289983670357311 0.086834150815055466 0.0 0.0060755677249022672 0.067769453638258259 0.0 0.0091702656620878727 0.05271376186454256 0.0 0.014637918884775079 0.093047857385919377 0.0 0.0034322522970115718 0.10148610650208605 0.0 -0.036558291143177379 -0.55820389289144179 0.0 -0.0073188110579593818 0.098353357962535123 0.0 -0.0091766530136589142 0.090725405956012084 0.0 -0.023865810018459249 0.063957228891580883 0.0 0.031277512029369486 0.057970785733723718 0.0 -0.07864730085850058 0.097199152176114523 0.0 0.02905147652953062 -0.5244533072164449 0.0 0.020485765763549407 0.014461671144096591 0.0 0.040173517050022409 0.10173907913767223 0.0 0.0068505988831712482 0.062418829944310972 0.0 0.0013192229300473942 0.070147702295667524 0.0 -0.086475887305892007 0.072463113060776407 0.0 -0.14704325557830511 0.039830858910310435 0.0 -0.0085079766131202043 0.11292747435542344 0.0 -0.020747531902923777 0.038175073385356306 0.0 0.0072376257990951209 0.16744513933311453 0.0 -0.019788812083267715 0.089813032613735438 0.0 0.036976645449355083 0.10675881068124501 0.0 0.011956340039911157 0.073308479074654848 0.0 -0.022358051107468579 0.082106424319918853 0.0 0.006102931409674826 0.039218759731224864 0.0 -0.044148196817359847 0.068172589242502538 0.0 -0.056201844166996168 -0.37016787951540153 0.0 0.032319110627305608 0.059528507391712566 0.0 -0.07139791647299297 0.030559582254376494 0.0 0.013243048588125833 0.20865288283607114 0.0 0.024209565420519552 -0.27369356306440235 0.0 0.017482413073818343 0.053208895926014688 0.0 0.047188471565732894 0.061255101888994051 0.0 0.02674483980568787 0.02241758694870255 0.0 0.27929191393843511 0.13670210977456465 0.0 -0.0049733869795060559 0.0050436566169365007 0.0 0.021308426996547173 0.11353264056124908 0.0 0.055676693079548839 0.020138625586537867 0.0 -0.02012661385236969 -0.71394822894100041 0.0 -0.015774487417773972 0.096017770721564671 0.0 0.036941228676804855 0.12658102785003006 0.0 0.023372530588668256 0.021510572567449308 0.0 -0.0092664547941872788 -0.35896088839279261 0.0 -0.032097966469445016 0.091405659391470884 0.0 -0.061762829078762432 0.14680193102158556 0.0 -0.051622055633159414 0.11645767291875359 0.0 -0.028596682999691092 0.072658803178999781 0.0 0.038750988152801036 0.089807667220018678 0.0 0.010128013515743051 0.15144545558980518 0.0 0.066659481719350266 0.11205848083215346 0.0 -0.034007454206984089 0.18696862154041466 0.0 0.037632968565190009 0.062211437799680261 0.0 0.05080571771692137 0.024246656244545875 0.0 -0.0060099421862307711 -0.47517783753729353 0.0 -0.01627892202492992 0.10995005271384233 0.0 0.0059957967672252047 -0.0070261870969451357 0.0 -0.0059402482691132338 0.13593829330306478 0.0 -0.050335084983200634 0.11860072507162345 0.0 0.067712313464138307 -0.066343984540355339 0.0 0.015949510567896688 0.043648635920492729 0.0 -0.060321650009757047 0.075101113661543234 0.0 -0.023333735083261406 0.090156853942510606 0.0 -0.01086901660922801 -0.46839377859268916 0.0 -0.033769976851493966 -0.6452825198111396 0.0 0.039530046505010463 0.16272790545952209 0.0 -0.059981814790823373 0.032274295008980408 0.0 0.064424856835552741 0.1936237517254617 0.0 0.062323799965639248 0.051275663849849329 0.0 0.010768521582152593 -0.0082981647925345209 0.0 0.023710377129879445 0.017255234547139037 0.0 0.06372617949550774 0.075224975737138572 0.0 0.03957065868531251 0.10104759728551854 0.0 0.0043938921633304984 0.10105372927165915 0.0 -0.054904046011488128 -0.040082384616994801 0.0 -0.032071418834342537 0.067864696374593553 0.0 -0.0057557606290912743 0.083401962581891045 0.0 0.0064603683776633392 -0.59548052563296172 0.0 0.038452129016005553 0.090025609375821547 0.0 0.038379633279578322 0.086526441892195591 0.0 -0.013842010503931468 -0.38921257499854028 0.0 0.017040508938727217 0.05649275498236872 0.0 -0.030034232208947742 0.080265416094239206 0.0 -0.030843028189838362 0.075424713362332363 0.0 -0.015869091032496951 0.052915800996840512 0.0 -0.050211442414642066 0.050437581392037155 0.0 0.071101703339724431 0.030079421231458726 0.0 0.061723811081553684 0.066873022751918532 0.0 0.029819002865080199 0.091270357875602476 0.0 0.0072718175141109342 0.038832792193109672 0.0 0.0060915603254867168 0.080555360869292644 0.0 0.37237671257641403 0.08369480988602962 0.0 -0.0033441646787721324 0.1147349971708186 0.0 -0.009296855545379127 0.11984448587431351 0.0 0.0068798203162897531 -0.53510328150298259 0.0 0.014534075912124394 0.10986881644827526 0.0 -0.0027520670577524699 0.061222499008494205 0.0 0.032413138067467234 0.07053300750785875 0.0 -0.0035582738332054498 0.047112444502067419 0.0 0.047506799576020664 0.20930278744504932 0.0 -0.012098682544477287 0.037818148306354119 0.0 0.0096541395337866875 0.086640397694792259 0.0 -0.045402619667396171 0.034973763578393866 0.0 0.040151894855424766 0.11316519875242759 0.0 -0.054750392978426321 0.0095483495512930228 0.0 0.10704936807358349 0.13435843258248381 0.0 0.037439781143688622 -0.38066270224859161 0.0 0.015985127892905071 -0.32813442955631733 0.0 0.00025450979421741404 0.084438752480326923 0.0 0.01354432666144198 -0.41808747438139737 0.0 -0.050359048987482669 0.051119982400560635 0.0 </DataArray>
<DataArray Name="radii" format="ascii" type="Float32">1 1 1 1 1 1 1 1 1 1 1 1 1 1 1 1 1 1 1 1 1 1 1 1 1 1 1 1 1 1 1 1 1 1 1 1 1 1 1 1 1 1 1 1 1 1 1 1 1 1 1 1 1 1 1 1 1 1 1 1 1 1 1 1 1 1 1 1 1 1 1 1 1 1 1 1 1 1 1 1 1 1 1 1 1 1 1 1 1 1 1 1 1 1 1 1 1 1 1 1 1 1 1 1 1 1 1 1 1 1 1 1 1 1 1 1 1 1 1 1 1 1 1 1 1 1 1 1 1 1 1 1 1 1 1 1 1 1 1 1 1 1 1 1 1 1 1 1 1 1 1 </DataArray>
</PointData>
<CellData/>
</Piece>
</UnstructuredGrid>
</VTKFile>
