<?xml version="1.0" ?>
<VTKFile byte_order="LittleEndian" type="UnstructuredGrid" version="0.1">
<UnstructuredGrid>
<Piece NumberOfCells="0" NumberOfPoints="194">
<Points>
<DataArray NumberOfComponents="3" format="ascii" type="Float32">1.5691880074856817 1.2383544262704178 2.0 4.991305731260578 2.3160545055732911 2.0 6.8687220143878474 1 2.0 7.5143631153698163 2.1895628313316919 2.0 13.071425010450634 1.8873395357562903 2.0 16.181923420296464 1 2.0 18.306268614422763 2.1067266902936193 2.0 22.190189125387821 1 2.0 22.923356825092039 1.9685738996848159 2.0 28.645907148249282 1 2.0 31.0 1 2.0 33.74686937760476 1 2.0 38.958956748067507 1.6144581481419347 2.0 40.371940719879682 1 2.0 43.0 1 2.0 45.827441600547367 1 2.0 47.406596735877976 1.3830325474451142 2.0 52.23721726732893 1 2.0 54.111376798364361 1 2.0 57.004736181984541 1.9766534328197842 2.0 58.888843952415272 2.2698071444973298 2.0 63.428730682389691 2.0968936532268554 2.0 69.092941437668657 1.8095946026982668 2.0 70.157479312084845 2.2752823202795098 2.0 73.183977272832522 1 2.0 76.411120072361967 1.9517463737075817 2.0 77.798385781287266 1.595803075083279 2.0 82.474605551846892 1 2.0 83.730624465855968 1 2.0 85.550364887893835 1.5879530854585433 2.0 90.162643677192676 1 2.0 94.358693642638542 3.3319182866144037 2.0 96.053668881285773 3.0238009353765714 2.0 103.44319020778329 2.2573567322595585 2.0 2.6495906160305527 6.2086600116777486 2.0 4.3303562942588512 1 2.0 12.041784791172111 2.2158877352853499 2.0 15.727916516315837 2.7488920939779171 2.0 17.063431771350263 2.2034433530517141 2.0 28.662732812892187 2.710500131234729 2.0 35.446555994901992 1.3186351503557578 2.0 50.611421910897249 1 2.0 57.82546092663209 3.5726444050483392 2.0 61.526498747646535 1.7296155097607402 2.0 63.330644801633021 4.6349432803549693 2.0 66.274182144857178 1.2982774784526674 2.0 72.035072343953473 1 2.0 76.732250306758758 3.8372345355847357 2.0 81.060624775613206 1 2.0 87.953931716470606 3.6325976202650021 2.0 91.296198184241476 1.7894796478234642 2.0 94.140443219933914 1 2.0 97.637064687136501 1.273419341945623 2.0 100.15545495102097 1.8513123482796925 2.0 3.4758693881528235 2.0080472273986052 2.0 5.6589588183150559 1 2.0 8.094513850092234 4.0005367702083694 2.0 14.175354479889172 1 2.0 21.265735325908658 1.3608163538024602 2.0 23.811685697670701 3.4763116385964676 2.0 35.931322837997399 2.9203582821766019 2.0 48.843431407311627 3.7107100939777777 2.0 56.326012037939172 3.8407718648360807 2.0 60.451126545757248 3.5484946060904257 2.0 64.637142447865742 1.8041072610440292 2.0 67.91400679791137 4.3015129969632522 2.0 71.42137071698491 2.4960543957838732 2.0 74.429153784373597 1 2.0 79.910220848977929 1.6764106244251746 2.0 86.8830125031336 2.8988650131619709 2.0 88.354279213631798 2.2085059099299649 2.0 93.574413748377651 4.5213027348287742 2.0 95.741798431821962 1 2.0 102.02312763592718 3.2796469030930893 2.0 2.1166653755533167 3.0633310912230018 2.0 9.7246902042612415 2.0289997783410985 2.0 26.516502648161989 1.4429814406441093 2.0 61.934344593885548 3.8759874872108866 2.0 67.81973123862565 1.7578979613231382 2.0 93.824702480361751 1.9954811881145318 2.0 96.860317451625036 1 2.0 100.85658540129393 1.0786021317375045 2.0 0.91934284575399905 2.8523947720553577 2.0 6.4892396720333121 3.2551822499262615 2.0 8.8959231567451873 1.460159700519932 2.0 14.365612683044386 3.2974321234273156 2.0 19.411123059521465 3.8401480216295441 2.0 24.434982588392796 1.9452971016731315 2.0 37.303861200773774 1.3418049886977426 2.0 49.077043214661416 1.2192178651971382 2.0 54.721731484004742 2.0639154685211434 2.0 58.132600179085578 1.9429109116431369 2.0 63.763854230386926 3.3066517424285484 2.0 68.560915725464298 3.0189177599397219 2.0 70.723485518783576 4.0036376747186857 2.0 74.57547947769406 2.0973909983455492 2.0 78.838231904274025 1 2.0 83.939185302906253 2.6083619464109651 2.0 89.1667574161945 3.6068231457734989 2.0 95.19794956393163 1.4703713334075439 2.0 96.51026434908934 4.2923755396965744 2.0 101.81034227806572 1 2.0 1.1083828395004118 4.3070136449678484 2.0 11.208230861717476 1.9124949585887645 2.0 27.685269869559875 4.2265444326947739 2.0 62.290456580048058 1.3666287679893181 2.0 65.232823995371589 4.0844017039056641 2.0 92.349417431170593 1.6465643184345091 2.0 99.104081072611351 3.6578323392872298 2.0 99.3010179493984 1.4968699818414564 2.0 4.0096605472241222 2.9148333930854999 2.0 20.066824142702899 1 2.0 25.884049981121553 3.592776789214537 2.0 59.915740813256015 1.9791362755628157 2.0 64.197699982340922 1 2.0 72.933599788422839 2.4083235512803052 2.0 79.103623314761691 3.5139462827244645 2.0 86.918466847509663 1 2.0 89.287691089235963 1.5338218154512255 2.0 3.169283917005369 3.6626964962076793 2.0 10.071331088798821 3.6596260147913764 2.0 25.447245473790296 1 2.0 67.394113140958879 2.5653155244934762 2.0 92.212322485089672 3.9530376749726299 2.0 2.4391422665364364 1.7748718339549066 2.0 6.099885585734552 2.0596608758273125 2.0 7.9297147004293773 1 2.0 13.684302480962375 2.4965005957980755 2.0 18.659387252760894 1 2.0 22.363064158338769 2.6557229156859208 2.0 38.55508135908655 3.0892014132394321 2.0 47.953829246019779 2.6233425688908767 2.0 56.02161113129894 1.015908032056815 2.0 59.260897116949629 3.4278626076238128 2.0 63.051900752227418 1 2.0 68.40889815275284 1 2.0 69.909851139686836 1 2.0 76.15578192650743 1 2.0 77.76729682763721 2.9240255493038863 2.0 85.49273198525961 3.1571192460552933 2.0 90.060680367464926 3.0656783435312094 2.0 94.986182225611913 2.502555739775568 2.0 96.607677369079326 2.232417119458515 2.0 102.89968235281385 1.0017096701465849 2.0 2.11610309928421 4.8648443487703004 2.0 12.505761527304164 1 2.0 27.612103757813969 1.4476872823731399 2.0 60.910461002713227 1 2.0 65.451406077451466 1 2.0 91.489995944749907 3.0409127400882321 2.0 97.891746868693346 2.65499644975446 2.0 100.53741210270037 3.0187853203308337 2.0 2.9181566397361163 1 2.0 21.288009354321705 3.0550867887390036 2.0 22.395894831374328 4.2185301542102183 2.0 59.690018452660169 1 2.0 65.764254092320897 2.4290452830683442 2.0 71.076030527413977 1.1202503094918099 2.0 80.428703450009706 2.9261242032007839 2.0 86.818361229240466 1.8278258635658677 2.0 88.202472921413374 1 2.0 0.84201549036367584 1.6412654321057785 2.0 10.416005008526486 1 2.0 27.087056335206412 2.8061127674795414 2.0 67.064023956017081 1 2.0 93.077085941675534 1.2210032371906945 2.0 8.3608622033809947 2.8677768542984095 2.0 14.941834733869671 1.5444022181083685 2.0 20.344561977099588 2.3043140708398724 2.0 23.723874478230893 1.2597110994842415 2.0 37.194569360888096 2.9390638872134232 2.0 55.85218338255784 2.6587791771293063 2.0 58.026614162774194 1 2.0 64.784098157839807 3.0195109034653305 2.0 69.559092363416127 3.5189142737536199 2.0 72.160125549577685 3.8015277943515668 2.0 75.611641502811054 2.8811405023335168 2.0 84.643194233554581 1.1268810248739531 2.0 90.561142843501102 4.4637326349158934 2.0 97.642174474956093 3.7041962463476383 2.0 3.6157243865542399 4.8939554922100212 2.0 10.761124815155728 2.9960880808977319 2.0 62.564662763105339 2.9257814942965839 2.0 66.459716029868972 4.1352390782678921 2.0 91.628254329334567 1 2.0 98.516336766615296 1.6311131636073299 2.0 19.404037052378797 2.5909720015939919 2.0 25.022434051466071 4.6240897495713993 2.0 61.04452523495258 2.6160364304085917 2.0 90.385663497247421 2.2359655091787105 2.0 9.3714860202198071 4.6127947778051928 2.0 25.394174537286833 2.4868999035680717 2.0 66.681403619119706 3.0187798095999154 2.0 92.938138679385332 2.9061745015559208 2.0 </DataArray>
</Points>
<Cells>
<DataArray Name="connectivity" format="ascii" type="Int32">0</DataArray>
<DataArray Name="offsets" format="ascii" type="Int32">0</DataArray>
<DataArray Name="types" format="ascii" type="UInt8">1</DataArray>
</Cells>
<PointData>
<DataArray Name="Points" NumberOfComponents="3" format="ascii" type="Float32">1.5691880074856817 1.2383544262704178 2.0 4.991305731260578 2.3160545055732911 2.0 6.8687220143878474 1 2.0 7.5143631153698163 2.1895628313316919 2.0 13.071425010450634 1.8873395357562903 2.0 16.181923420296464 1 2.0 18.306268614422763 2.1067266902936193 2.0 22.190189125387821 1 2.0 22.923356825092039 1.9685738996848159 2.0 28.645907148249282 1 2.0 31.0 1 2.0 33.74686937760476 1 2.0 38.958956748067507 1.6144581481419347 2.0 40.371940719879682 1 2.0 43.0 1 2.0 45.827441600547367 1 2.0 47.406596735877976 1.3830325474451142 2.0 52.23721726732893 1 2.0 54.111376798364361 1 2.0 57.004736181984541 1.9766534328197842 2.0 58.888843952415272 2.2698071444973298 2.0 63.428730682389691 2.0968936532268554 2.0 69.092941437668657 1.8095946026982668 2.0 70.157479312084845 2.2752823202795098 2.0 73.183977272832522 1 2.0 76.411120072361967 1.9517463737075817 2.0 77.798385781287266 1.595803075083279 2.0 82.474605551846892 1 2.0 83.730624465855968 1 2.0 85.550364887893835 1.5879530854585433 2.0 90.162643677192676 1 2.0 94.358693642638542 3.3319182866144037 2.0 96.053668881285773 3.0238009353765714 2.0 103.44319020778329 2.2573567322595585 2.0 2.6495906160305527 6.2086600116777486 2.0 4.3303562942588512 1 2.0 12.041784791172111 2.2158877352853499 2.0 15.727916516315837 2.7488920939779171 2.0 17.063431771350263 2.2034433530517141 2.0 28.662732812892187 2.710500131234729 2.0 35.446555994901992 1.3186351503557578 2.0 50.611421910897249 1 2.0 57.82546092663209 3.5726444050483392 2.0 61.526498747646535 1.7296155097607402 2.0 63.330644801633021 4.6349432803549693 2.0 66.274182144857178 1.2982774784526674 2.0 72.035072343953473 1 2.0 76.732250306758758 3.8372345355847357 2.0 81.060624775613206 1 2.0 87.953931716470606 3.6325976202650021 2.0 91.296198184241476 1.7894796478234642 2.0 94.140443219933914 1 2.0 97.637064687136501 1.273419341945623 2.0 100.15545495102097 1.8513123482796925 2.0 3.4758693881528235 2.0080472273986052 2.0 5.6589588183150559 1 2.0 8.094513850092234 4.0005367702083694 2.0 14.175354479889172 1 2.0 21.265735325908658 1.3608163538024602 2.0 23.811685697670701 3.4763116385964676 2.0 35.931322837997399 2.9203582821766019 2.0 48.843431407311627 3.7107100939777777 2.0 56.326012037939172 3.8407718648360807 2.0 60.451126545757248 3.5484946060904257 2.0 64.637142447865742 1.8041072610440292 2.0 67.91400679791137 4.3015129969632522 2.0 71.42137071698491 2.4960543957838732 2.0 74.429153784373597 1 2.0 79.910220848977929 1.6764106244251746 2.0 86.8830125031336 2.8988650131619709 2.0 88.354279213631798 2.2085059099299649 2.0 93.574413748377651 4.5213027348287742 2.0 95.741798431821962 1 2.0 102.02312763592718 3.2796469030930893 2.0 2.1166653755533167 3.0633310912230018 2.0 9.7246902042612415 2.0289997783410985 2.0 26.516502648161989 1.4429814406441093 2.0 61.934344593885548 3.8759874872108866 2.0 67.81973123862565 1.7578979613231382 2.0 93.824702480361751 1.9954811881145318 2.0 96.860317451625036 1 2.0 100.85658540129393 1.0786021317375045 2.0 0.91934284575399905 2.8523947720553577 2.0 6.4892396720333121 3.2551822499262615 2.0 8.8959231567451873 1.460159700519932 2.0 14.365612683044386 3.2974321234273156 2.0 19.411123059521465 3.8401480216295441 2.0 24.434982588392796 1.9452971016731315 2.0 37.303861200773774 1.3418049886977426 2.0 49.077043214661416 1.2192178651971382 2.0 54.721731484004742 2.0639154685211434 2.0 58.132600179085578 1.9429109116431369 2.0 63.763854230386926 3.3066517424285484 2.0 68.560915725464298 3.0189177599397219 2.0 70.723485518783576 4.0036376747186857 2.0 74.57547947769406 2.0973909983455492 2.0 78.838231904274025 1 2.0 83.939185302906253 2.6083619464109651 2.0 89.1667574161945 3.6068231457734989 2.0 95.19794956393163 1.4703713334075439 2.0 96.51026434908934 4.2923755396965744 2.0 101.81034227806572 1 2.0 1.1083828395004118 4.3070136449678484 2.0 11.208230861717476 1.9124949585887645 2.0 27.685269869559875 4.2265444326947739 2.0 62.290456580048058 1.3666287679893181 2.0 65.232823995371589 4.0844017039056641 2.0 92.349417431170593 1.6465643184345091 2.0 99.104081072611351 3.6578323392872298 2.0 99.3010179493984 1.4968699818414564 2.0 4.0096605472241222 2.9148333930854999 2.0 20.066824142702899 1 2.0 25.884049981121553 3.592776789214537 2.0 59.915740813256015 1.9791362755628157 2.0 64.197699982340922 1 2.0 72.933599788422839 2.4083235512803052 2.0 79.103623314761691 3.5139462827244645 2.0 86.918466847509663 1 2.0 89.287691089235963 1.5338218154512255 2.0 3.169283917005369 3.6626964962076793 2.0 10.071331088798821 3.6596260147913764 2.0 25.447245473790296 1 2.0 67.394113140958879 2.5653155244934762 2.0 92.212322485089672 3.9530376749726299 2.0 2.4391422665364364 1.7748718339549066 2.0 6.099885585734552 2.0596608758273125 2.0 7.9297147004293773 1 2.0 13.684302480962375 2.4965005957980755 2.0 18.659387252760894 1 2.0 22.363064158338769 2.6557229156859208 2.0 38.55508135908655 3.0892014132394321 2.0 47.953829246019779 2.6233425688908767 2.0 56.02161113129894 1.015908032056815 2.0 59.260897116949629 3.4278626076238128 2.0 63.051900752227418 1 2.0 68.40889815275284 1 2.0 69.909851139686836 1 2.0 76.15578192650743 1 2.0 77.76729682763721 2.9240255493038863 2.0 85.49273198525961 3.1571192460552933 2.0 90.060680367464926 3.0656783435312094 2.0 94.986182225611913 2.502555739775568 2.0 96.607677369079326 2.232417119458515 2.0 102.89968235281385 1.0017096701465849 2.0 2.11610309928421 4.8648443487703004 2.0 12.505761527304164 1 2.0 27.612103757813969 1.4476872823731399 2.0 60.910461002713227 1 2.0 65.451406077451466 1 2.0 91.489995944749907 3.0409127400882321 2.0 97.891746868693346 2.65499644975446 2.0 100.53741210270037 3.0187853203308337 2.0 2.9181566397361163 1 2.0 21.288009354321705 3.0550867887390036 2.0 22.395894831374328 4.2185301542102183 2.0 59.690018452660169 1 2.0 65.764254092320897 2.4290452830683442 2.0 71.076030527413977 1.1202503094918099 2.0 80.428703450009706 2.9261242032007839 2.0 86.818361229240466 1.8278258635658677 2.0 88.202472921413374 1 2.0 0.84201549036367584 1.6412654321057785 2.0 10.416005008526486 1 2.0 27.087056335206412 2.8061127674795414 2.0 67.064023956017081 1 2.0 93.077085941675534 1.2210032371906945 2.0 8.3608622033809947 2.8677768542984095 2.0 14.941834733869671 1.5444022181083685 2.0 20.344561977099588 2.3043140708398724 2.0 23.723874478230893 1.2597110994842415 2.0 37.194569360888096 2.9390638872134232 2.0 55.85218338255784 2.6587791771293063 2.0 58.026614162774194 1 2.0 64.784098157839807 3.0195109034653305 2.0 69.559092363416127 3.5189142737536199 2.0 72.160125549577685 3.8015277943515668 2.0 75.611641502811054 2.8811405023335168 2.0 84.643194233554581 1.1268810248739531 2.0 90.561142843501102 4.4637326349158934 2.0 97.642174474956093 3.7041962463476383 2.0 3.6157243865542399 4.8939554922100212 2.0 10.761124815155728 2.9960880808977319 2.0 62.564662763105339 2.9257814942965839 2.0 66.459716029868972 4.1352390782678921 2.0 91.628254329334567 1 2.0 98.516336766615296 1.6311131636073299 2.0 19.404037052378797 2.5909720015939919 2.0 25.022434051466071 4.6240897495713993 2.0 61.04452523495258 2.6160364304085917 2.0 90.385663497247421 2.2359655091787105 2.0 9.3714860202198071 4.6127947778051928 2.0 25.394174537286833 2.4868999035680717 2.0 66.681403619119706 3.0187798095999154 2.0 92.938138679385332 2.9061745015559208 2.0 </DataArray>
<DataArray Name="forces" NumberOfComponents="3" format="ascii" type="Float32">-0.27714810725553363 -0.77410043302086951 0.0 0.1105061739657961 0.46579507324773606 0.0 -0.12337698319675328 -0.80817792053136306 0.0 -0.18655254918578873 0.39750226551835866 0.0 0.12471368511921743 0.046782262893589555 0.0 0.23083269117460814 -0.42085376087274434 0.0 -0.19086444103235256 0.33653413723937509 0.0 0.15178324400251489 -1.0189720695618794 0.0 0.024768569723838563 0.23842081724582836 0.0 0.63565716453780741 -0.42816570078774091 0.0 0.0 0.0 0.0 -0.077293349498823924 -0.015756337049503921 0.0 -0.019701719934686127 -0.16380887006947631 0.0 0.24918868471826752 -0.11665062580083195 0.0 0.0 0.0 0.0 -0.15111481326729956 -0.042366660143103252 0.0 -0.1755427770070247 -0.40348968791676293 0.0 0.18582733605678503 0.0 0.0 -0.30748358627037076 -0.5157268580646619 0.0 -0.22155688184506045 0.40457840974442782 0.0 0.094153390894384709 0.40270389558110548 0.0 -0.050756214378822107 0.31175597554136536 0.0 0.13458318349141499 0.280958366734195 0.0 0.15558823264694988 0.59078485278851378 0.0 0.10506362006544734 -0.39573155032429591 0.0 0.14254443688166185 0.35715025551012664 0.0 -0.079382324345304511 -0.25303830070225547 0.0 -0.14277690866970261 0.0 0.0 -0.46216839650545655 -0.42402795767826401 0.0 -0.091932323577805453 0.068478864990777544 0.0 -0.14320851186784928 -1.1603245274253675 0.0 0.087168014749231693 0.7840266071380908 0.0 -0.086941755974370219 0.57630766724563154 0.0 0.24390134475185393 0.44330994793051176 0.0 0.015546111372962912 0.56987665412468402 0.0 0.088758567785361175 -0.69036700707239262 0.0 0.10484851610087309 0.74051828748830606 0.0 0.21283748964335913 0.31340455556410468 0.0 -0.039114702679050817 0.16235171541025484 0.0 0.43279378671686941 0.2512328282396889 0.0 0.034233065005037339 -0.10586150561319474 0.0 0.088020665064872605 -0.041658977935569462 0.0 -0.18171031872631793 0.23612870003964898 0.0 -0.06176871783480381 0.17578421851567116 0.0 0.06566675949961201 0.4810221425748758 0.0 0.042497026358387896 -0.11903110324714128 0.0 0.19010835076915888 -0.50957232537939423 0.0 -0.10046674582785864 0.52806865029007799 0.0 0.048830956064369047 -0.25025994953683101 0.0 -0.27498314883616903 0.6011556741695363 0.0 -0.16936914795393099 0.29542327420190306 0.0 0.080031410658760738 -1.3209215049194634 0.0 0.23392129327326028 -0.64133153688084699 0.0 0.29890658925882835 0.29788194426547726 0.0 0.18407117369932391 0.25340150298397557 0.0 -0.26042669161403736 -0.93848672323002469 0.0 -0.50198580620998556 0.48571141289135167 0.0 -0.26915531708295815 -1.0130168321826978 0.0 -0.035030058094369154 -0.19126048039968532 0.0 0.21650255213647457 -0.014464731467330322 0.0 -0.57957004991261452 0.11761292034846738 0.0 0.27597050153236025 0.3449389563639817 0.0 -0.051019762651646566 0.5683906402833363 0.0 0.030792567269408933 0.80974538993835066 0.0 -0.06650260349055967 0.24032140193190454 0.0 0.21147485950492634 0.3996967706254263 0.0 0.1327279151269358 0.37016437762770799 0.0 0.44993868167000978 -0.70003455156903638 0.0 -0.15296338238983859 0.041155791727713276 0.0 -0.13167020443572305 0.45607197089792118 0.0 -0.11765981119084767 0.50104391263649917 0.0 0.1647914688980856 0.51859260223587222 0.0 0.26125055719027923 -1.1423946096134694 0.0 0.28900120537753432 0.07470034037391067 0.0 0.048273868959979864 0.052551343082954172 0.0 -0.1377983229442597 0.43656298243998315 0.0 -0.04854123349616174 -0.29345824217821515 0.0 -0.1899347468792984 0.76043081635169196 0.0 0.015889792948620779 0.016816532570712195 0.0 0.074856161971360136 0.5290648977643948 0.0 -0.065332759503597196 -1.0005443378601211 0.0 -0.10741051531601498 -0.44069215404890855 0.0 -0.67874184542975335 0.37723585057562353 0.0 -0.012507753064961297 0.82568862366427842 0.0 0.10171909903251888 -0.47247054378779968 0.0 0.17504422345640927 0.72979993909643748 0.0 -0.047523228113855211 0.69338503209616309 0.0 0.17223044746545069 0.37490516387571188 0.0 -0.1107835214594971 -0.27419593667849307 0.0 -0.15349156091205132 0.023003978431692933 0.0 -0.34069437378690082 0.3883175528872912 0.0 -0.14001079006781852 0.32113455768332289 0.0 -0.096450255565521892 0.53349889151047869 0.0 -0.008738892670027254 0.36715424499515792 0.0 0.046436939292448798 0.40569998632094939 0.0 -0.18110874828319756 0.40258654607398092 0.0 0.075939918012096763 -0.58263856707349138 0.0 -0.22647665528933714 0.41264305046987287 0.0 -0.14710525929489163 0.42044485639392892 0.0 -0.039452682925975591 -0.023153418761471589 0.0 -0.34548994388130072 0.68932295474685379 0.0 0.08836657218321009 -0.17700585238607575 0.0 -0.73428274395911197 0.14444416222947631 0.0 -0.12976870495127624 -0.31129687239602499 0.0 0.085400408760346824 0.24657725597004548 0.0 0.05764454930960633 -0.38224246029006853 0.0 -0.25953628420404895 0.79070185542793592 0.0 0.12013761374613136 0.26104661528115908 0.0 0.39776447580640084 0.23184155844111798 0.0 0.098437096107080291 -0.38547127324153108 0.0 0.3414010394879739 0.51804587842976824 0.0 -0.1979463778554878 -0.70693337268189071 0.0 0.26608718015237448 0.34059945409244707 0.0 0.0085548096265138929 0.26080480465178779 0.0 -0.049981347787357577 -1.1727981047606124 0.0 0.36253181617486785 0.33157120926039707 0.0 -0.080886464365278188 0.30336418479817256 0.0 -0.13603275467027692 -1.1122184167854698 0.0 -0.0099998141794258588 -0.080844979943758416 0.0 -0.0066776803308002952 0.22328949839545231 0.0 -0.16389292776368047 0.24494087703408374 0.0 -0.26057573304693493 -0.88944692030146066 0.0 0.20130089096290182 0.41526207171556551 0.0 -0.22462825884412879 0.84151474444488694 0.0 -0.15044882417607236 0.58487107444874542 0.0 0.043040980964151765 0.3052459187384432 0.0 0.37824624606584734 -0.88173463310223121 0.0 0.020514128644915808 0.47162579058826815 0.0 -0.19546561881561456 -0.65252464613483596 0.0 0.075799999686437539 0.46168519542934572 0.0 0.36051718292306245 0.34736418372030853 0.0 -0.06966935146764229 0.11957239119976103 0.0 -0.18010362461144294 -0.71567830063404214 0.0 -0.18507884520865953 0.70836411214949802 0.0 0.035499339418289644 -1.1316876664564584 0.0 0.19452732019373947 -1.2441253157288954 0.0 0.059178409226428363 -1.1001958864820012 0.0 -0.24131865414030201 -0.85363515281011026 0.0 0.12809650514344506 0.15535869567235566 0.0 -0.25936427977050591 0.39409020995496502 0.0 -0.1694759242923724 0.25684619524424901 0.0 0.073968224028988366 0.36719448837771884 0.0 0.11692682941285937 0.30617144646773753 0.0 0.53221833558027232 -0.40916979140297638 0.0 -0.051894466648720328 0.1552650595266743 0.0 -0.13423621086980428 -1.272281127877644 0.0 0.089677129715036497 -0.23935639717517673 0.0 0.03484385185659513 -1.2381342733760943 0.0 -0.13836065167848358 -1.1703319535982377 0.0 0.035934724689664188 0.42869544623211397 0.0 0.14805721154989404 0.27762845689066101 0.0 0.056548760769014411 0.4024961749662731 0.0 0.25352635542690061 -1.5185614147299058 0.0 -0.30115218108077352 0.63881603042267709 0.0 -0.092502791526105022 0.50342897685020926 0.0 -0.54006167552416673 -1.0478282357887854 0.0 0.10857348327401106 0.32911334978563628 0.0 -0.088061599766346421 -0.50018845500289522 0.0 0.54891598953887089 0.29809740359478948 0.0 -0.077918502064220546 0.40623058439487059 0.0 0.14558121299152774 -0.98535838208561999 0.0 -1.3294629425286206 -0.13934825337684506 0.0 0.18054398067490934 -0.97974978474036434 0.0 -0.0099491494462736196 0.36469458901528751 0.0 0.063476730113017299 -1.1067164507164291 0.0 -0.034462913848844645 -0.85656853082600726 0.0 0.40632769865144258 0.220382358875816 0.0 0.35563457253591102 0.25853973477125958 0.0 0.085726137608592823 0.14260821051627331 0.0 0.14922210095966204 -0.97893695292127547 0.0 0.14340970815925441 0.21129617114272412 0.0 -0.15561840178382047 0.21610393804986866 0.0 -0.050305552705182763 -1.4106112126824553 0.0 0.087409574076504071 0.20214995132751212 0.0 -0.041418996917557627 0.5137159584204174 0.0 0.44088452065454148 0.40883746447073571 0.0 -0.24489147416819701 0.55540395796699493 0.0 0.36260084500244344 -0.33558756068061657 0.0 0.22625566935608254 0.53935296068024474 0.0 0.045611893992483832 0.51599084309872112 0.0 0.67320698923007327 0.30970433953253029 0.0 0.37080243252029377 0.39366617415973093 0.0 -0.12949687881750155 0.15442373259975742 0.0 0.1153816064936955 0.66095746103098008 0.0 -0.22452030075021437 -1.5800743359454528 0.0 -0.040079897256042718 -0.1381732500603895 0.0 -0.29411523539696593 -0.032250093866177942 0.0 -0.21289879085944446 0.48298345583090108 0.0 0.01870218708979221 0.32899899078123046 0.0 -0.25263341229679809 0.028869565147772211 0.0 -0.00119478023331554 0.70132467022437783 0.0 0.0322921240474629 0.32041540058701784 0.0 -0.1553392399493787 0.37292856467252511 0.0 0.16210639484297357 0.28742456546213702 0.0 </DataArray>
<DataArray Name="radii" format="ascii" type="Float32">1 1 1 1 1 1 1 1 1 1 1 1 1 1 1 1 1 1 1 1 1 1 1 1 1 1 1 1 1 1 1 1 1 1 1 1 1 1 1 1 1 1 1 1 1 1 1 1 1 1 1 1 1 1 1 1 1 1 1 1 1 1 1 1 1 1 1 1 1 1 1 1 1 1 1 1 1 1 1 1 1 1 1 1 1 1 1 1 1 1 1 1 1 1 1 1 1 1 1 1 1 1 1 1 1 1 1 1 1 1 1 1 1 1 1 1 1 1 1 1 1 1 1 1 1 1 1 1 1 1 1 1 1 1 1 1 1 1 1 1 1 1 1 1 1 1 1 1 1 1 1 1 1 1 1 1 1 1 1 1 1 1 1 1 1 1 1 1 1 1 1 1 1 1 1 1 1 1 1 1 1 1 1 1 1 1 1 1 1 1 1 1 1 1 </DataArray>
</PointData>
<CellData/>
</Piece>
</UnstructuredGrid>
</VTKFile>
