<?xml version="1.0" ?>
<VTKFile byte_order="LittleEndian" type="UnstructuredGrid" version="0.1">
<UnstructuredGrid>
<Piece NumberOfCells="0" NumberOfPoints="593">
<Points>
<DataArray NumberOfComponents="3" format="ascii" type="Float32">8.8536337461118393 1.5453336569127623 20.235894446436614 20.0 6.2300888156922163 20.0 30.0 6.2300888156922163 20.0 39.549612722416988 1.3500567115175099 18.068445245938193 50.0 6.2300888156922163 20.0 59.027762985960258 5.1447993733990964 19.496399644141871 68.30632534425871 1.3420768857182257 17.370078135384812 81.191634190070843 2.260464077579845 18.897088387010065 90.0 6.2300888156922163 20.0 13.163548894263913 10.900512667958166 19.542022504477334 20.0 16.230088815692483 20.0 30.108987297328728 7.3104313065684288 22.451248089358884 40.0 16.230088815692483 20.0 50.0 16.230088815692483 20.0 61.850627372739275 7.3867666484499868 20.985742537957574 70.0 16.230088815692483 20.0 82.389048044861937 6.9669900141990349 17.095683407200923 89.465308811410196 10.7852727218082 18.731267468406308 10.0 26.230088815692483 20.0 19.925983663994 25.600034022358585 20.450772792198901 26.862194751764775 19.780205061775089 18.580055000795461 39.847220435185513 19.393988314723099 22.972540280749616 49.981137769582524 22.243011752840513 18.185333097034103 59.961364496082169 26.137215427103705 19.992979329440452 72.42352707535521 19.166747256714647 19.401404205300359 79.424015624473441 25.659879772630561 20.391434551928796 89.142905268386258 19.8550542259871 23.592847542656887 11.708826259418414 29.003280801772064 17.180479236231466 20.883017703369589 28.316018638312162 22.350287768021861 28.558281368630109 30.38579683669996 20.30727957006037 40.0 36.230088815692483 20.0 50.388623006880401 28.236306185550674 19.313371722621518 57.580159487810732 29.104272913007872 18.857248941014106 69.905588078853356 31.843329267087732 19.69482849839919 80.298237128395456 29.432802193197102 19.121762074027171 88.852391771245038 29.197090601764465 21.57716785455592 11.451026777984818 35.347953699311802 18.870138700598559 22.946472164342378 43.484025705985786 16.095146769094683 30.16833138964498 36.315810941719782 18.622497255305426 41.246879235250951 38.42462937625001 23.396590233018472 50.757534510489641 39.391050353691888 17.493061334056563 59.368360951648832 36.489206443878224 20.646808324734508 70.761930033194659 38.076873891314193 17.434908853999254 80.86262037470928 41.834810035630802 19.632695335435205 89.467857354162831 36.49782789134207 18.20783218317672 10.973979557162112 52.420940922809493 20.984478048007048 21.752451033129347 50.497933190326783 22.059866719928284 29.883498679099056 48.41244360172908 21.377310016943163 40.0 56.230088815692483 20.0 50.0 56.230088815692483 20.0 59.209573381342885 50.784456461836882 19.740541275123395 70.0 56.230088815692483 20.0 79.927099556222103 55.736295681216355 20.470797095482204 93.525742504948198 52.135058438549315 21.957575040340469 9.7069030203640594 65.946176594031243 20.182099110579991 20.006331006208701 64.992035264894682 19.107693151339664 30.201595058860232 58.45358634835867 19.787150553394817 41.013350308134321 62.008418127805193 20.508268631063018 50.26541136746976 64.915259839018248 20.675143103061181 59.094800931185262 57.718367925896459 19.200919387074951 70.0 66.230088815692483 20.0 79.628922510349611 59.339624917019293 18.868115285082244 89.990175112422676 66.083256245212866 19.793930357640154 8.3883778873197592 67.464619266277126 18.881064297428821 21.368794065916585 70.838716274941149 17.365009707640375 28.235174051909677 72.168986834840325 17.250460817150639 40.0 76.230088815692483 20.0 50.619328147675759 72.135102684860684 21.472889119882034 58.871390037995532 73.731473273335979 18.634775586030951 69.334607655321733 70.71459356737337 19.740490706270883 79.868441719309359 75.952669319440616 20.025887628148716 91.236396050505476 68.115905452888981 20.004525296994977 11.624335219740525 80.760850658536299 19.435856025754436 20.631924350894963 77.558449070025432 20.026084789221198 30.0 86.230088815692483 20.0 40.0 86.230088815692483 20.0 52.026136456948429 79.012108357380797 21.065396808970785 60.0 86.230088815692483 20.0 71.586475926457908 78.600941011795101 20.411950167952657 77.327828026287847 79.847245415677236 17.6363173343615 89.999217489302467 84.033611844665145 20.182038835638124 9.9923805032452453 5.8261000391576623 17.850861077790515 38.74769979164688 3.9599542633500278 22.443471671365444 71.341004790232915 3.0442130586955796 20.272441536224619 78.172298578496225 1.3418246552303319 19.980886776816739 7.2827186159721373 12.261734219529869 18.702989983106253 27.521055644215163 10.497127672535145 16.431661915481602 57.945565965834199 14.703336634360827 18.963543136542999 77.259819998755248 9.5615325491159702 21.772076929687628 92.425253645997174 9.2138111733383532 17.892274562113741 28.261700160748831 22.380317387589727 21.097153994535169 41.765574465690094 24.836218895284581 19.122346130898091 49.493625554515653 22.32461138180043 20.612708338381626 65.8251666244295 19.287823776294076 22.617626683018091 89.214922638209259 17.896200321968852 16.031072768071471 12.466086837494615 28.86522254963138 22.685813453744402 19.951461658163591 26.780511845141564 18.365431762158941 31.501009989474372 26.62083756127846 18.89455192630896 50.141345771537381 32.273611771548467 22.199786330225727 61.962167336963603 28.299683356559751 19.845082828553739 67.89338645261671 27.134777982867259 18.460963953880118 81.505882070559494 35.895074423869026 19.075980217592633 91.668835274842678 35.960808769542616 17.421534423074519 14.724676782927741 41.994260536737322 20.252475847625476 19.978044850724345 40.181430708045518 24.835637671589758 29.491604583338979 43.326227347243147 20.745882467496152 36.079808518394934 40.114059117418371 19.794317527753709 49.025595254033071 40.360742742934889 24.901816736972911 59.009361842624116 47.270056217588568 20.798979587497396 68.611589320264613 46.90038347618826 20.857117772956769 81.898182075059964 38.218161813182562 22.430791822628223 89.864719935966406 46.793097407698383 19.474722492206006 9.9662687960117093 47.167109879036573 14.564070807186887 19.447608375622718 55.083539954561012 17.96510504711885 32.520363637332771 52.37089968920634 19.366717689576642 61.078482773504909 56.859320930917988 20.239111866561682 90.694673889581665 47.658832293553594 16.427637214539086 31.20290751852286 63.111744919429547 20.357695608108799 38.523616411707856 62.48662941286802 19.927323518883163 63.32123039237775 59.70387316276566 21.786478104604829 80.795203675389686 57.486935297674471 23.172360051888344 13.174338930406629 71.33410131307555 18.859164171920629 23.541654171701584 67.129190323832404 19.684027093797752 29.941449777133471 66.523920265304156 20.827661417068523 46.069488961736852 69.152036081818594 18.947494539833833 59.034976231938032 68.66762238388695 19.629001044773638 70.786044080004359 75.127212149537826 21.896376327497244 89.836047925886447 71.813407670870291 19.299083739591126 9.8750266289210469 87.706034604037328 19.478903389658392 21.271678011441356 87.396810838257679 20.65487899266574 47.399628809589508 79.540067586589416 19.988318031307209 70.861094235950432 86.917869606862482 18.630091304054016 79.738374920441672 85.977825139140052 22.039717196296774 91.061923753290557 81.124999358355581 18.774316630176177 11.711724860968525 3.4355665573182996 21.099327005040063 43.108085985620214 2.9805457886731865 19.493761086923307 66.611302983081998 2.2586944938742066 22.837158543266803 79.655356900814255 6.737427318646672 20.17576912931165 12.473321015454934 7.5384040666330971 19.854909652790482 28.165649290843238 11.651610846169529 23.520774590208983 64.389414540225999 11.666084405930237 20.457959562982744 83.718897742870539 6.3334506659919834 21.119720260552906 90.095890221107709 13.058353859028239 22.475856761435892 31.76278359631004 21.820106686020999 15.805680440215557 39.632595689268207 23.513065433040676 18.158011243762903 48.982658938649337 27.280573355083565 21.48276434703773 69.893338359438189 25.298949240594297 18.700416172215892 87.190233145628994 25.979908428662423 19.568401681313652 7.0476716418856933 30.194335153025637 17.561344438925257 19.928740890846516 33.369321662590764 17.37438577258597 27.723702176284672 28.49670045204526 16.1694554185271 50.283304485963377 32.310142873870568 15.493978999621156 59.980515428268063 34.795249027497682 17.856193870636975 71.672845770613563 35.815290956107788 22.768292863352237 81.03897436056161 27.415729150019651 23.328249099582965 87.381459336380487 34.912589736360765 21.84712830003663 4.6962292176220677 36.959175763410414 19.694398398960242 19.223989429355832 38.223733483103686 20.030438441072672 31.445821190077275 39.679401639948985 20.70557343386405 43.255200963725216 37.076356403559856 19.010875809833628 48.881189195129075 36.267146794338288 20.62592344173634 64.609274949384542 41.51787210986457 20.078889867278384 70.226685164695937 37.691961606501913 22.267531985524485 75.449263201481813 38.507387638035652 18.78016870834325 91.627716473642892 40.866102813803884 20.183695215857018 9.8684532295052403 57.304863522038474 22.266828076060296 18.628369212712887 56.270871962681305 20.903363017191239 25.145220720459669 47.7342659835627 21.087453410168582 59.606852776461551 53.178337484158796 22.646142096261645 91.1212604707558 47.064819687752149 22.108490779123169 28.06662453801658 64.83217395127491 18.837214749857043 39.250806563856457 66.148786860836182 22.055236560373263 60.026957231261569 61.308700080517333 15.459842648820818 78.431114402015425 63.310094636539354 18.503614166511852 8.6614262706512442 76.183792274554804 21.986542661701915 15.304744170471801 74.077066311215603 20.894894161393715 34.251189238198521 70.026015589258151 19.102972718554167 52.44075820576915 75.242964233188744 18.419267413157034 62.251531611060486 75.473754722738946 20.341109730675093 71.680975332128341 74.108525927501077 19.021481308835739 87.528251172844463 73.730775350361355 21.844449488387777 11.147237278494
[...]
<PointData>
<DataArray Name="Points" NumberOfComponents="3" format="ascii" type="Float32">8.8536337461118393 1.5453336569127623 20.235894446436614 20.0 6.2300888156922163 20.0 30.0 6.2300888156922163 20.0 39.549612722416988 1.3500567115175099 18.068445245938193 50.0 6.2300888156922163 20.0 59.027762985960258 5.1447993733990964 19.496399644141871 68.30632534425871 1.3420768857182257 17.370078135384812 81.191634190070843 2.260464077579845 18.897088387010065 90.0 6.2300888156922163 20.0 13.163548894263913 10.900512667958166 19.542022504477334 20.0 16.230088815692483 20.0 30.108987297328728 7.3104313065684288 22.451248089358884 40.0 16.230088815692483 20.0 50.0 16.230088815692483 20.0 61.850627372739275 7.3867666484499868 20.985742537957574 70.0 16.230088815692483 20.0 82.389048044861937 6.9669900141990349 17.095683407200923 89.465308811410196 10.7852727218082 18.731267468406308 10.0 26.230088815692483 20.0 19.925983663994 25.600034022358585 20.450772792198901 26.862194751764775 19.780205061775089 18.580055000795461 39.847220435185513 19.393988314723099 22.972540280749616 49.981137769582524 22.243011752840513 18.185333097034103 59.961364496082169 26.137215427103705 19.992979329440452 72.42352707535521 19.166747256714647 19.401404205300359 79.424015624473441 25.659879772630561 20.391434551928796 89.142905268386258 19.8550542259871 23.592847542656887 11.708826259418414 29.003280801772064 17.180479236231466 20.883017703369589 28.316018638312162 22.350287768021861 28.558281368630109 30.38579683669996 20.30727957006037 40.0 36.230088815692483 20.0 50.388623006880401 28.236306185550674 19.313371722621518 57.580159487810732 29.104272913007872 18.857248941014106 69.905588078853356 31.843329267087732 19.69482849839919 80.298237128395456 29.432802193197102 19.121762074027171 88.852391771245038 29.197090601764465 21.57716785455592 11.451026777984818 35.347953699311802 18.870138700598559 22.946472164342378 43.484025705985786 16.095146769094683 30.16833138964498 36.315810941719782 18.622497255305426 41.246879235250951 38.42462937625001 23.396590233018472 50.757534510489641 39.391050353691888 17.493061334056563 59.368360951648832 36.489206443878224 20.646808324734508 70.761930033194659 38.076873891314193 17.434908853999254 80.86262037470928 41.834810035630802 19.632695335435205 89.467857354162831 36.49782789134207 18.20783218317672 10.973979557162112 52.420940922809493 20.984478048007048 21.752451033129347 50.497933190326783 22.059866719928284 29.883498679099056 48.41244360172908 21.377310016943163 40.0 56.230088815692483 20.0 50.0 56.230088815692483 20.0 59.209573381342885 50.784456461836882 19.740541275123395 70.0 56.230088815692483 20.0 79.927099556222103 55.736295681216355 20.470797095482204 93.525742504948198 52.135058438549315 21.957575040340469 9.7069030203640594 65.946176594031243 20.182099110579991 20.006331006208701 64.992035264894682 19.107693151339664 30.201595058860232 58.45358634835867 19.787150553394817 41.013350308134321 62.008418127805193 20.508268631063018 50.26541136746976 64.915259839018248 20.675143103061181 59.094800931185262 57.718367925896459 19.200919387074951 70.0 66.230088815692483 20.0 79.628922510349611 59.339624917019293 18.868115285082244 89.990175112422676 66.083256245212866 19.793930357640154 8.3883778873197592 67.464619266277126 18.881064297428821 21.368794065916585 70.838716274941149 17.365009707640375 28.235174051909677 72.168986834840325 17.250460817150639 40.0 76.230088815692483 20.0 50.619328147675759 72.135102684860684 21.472889119882034 58.871390037995532 73.731473273335979 18.634775586030951 69.334607655321733 70.71459356737337 19.740490706270883 79.868441719309359 75.952669319440616 20.025887628148716 91.236396050505476 68.115905452888981 20.004525296994977 11.624335219740525 80.760850658536299 19.435856025754436 20.631924350894963 77.558449070025432 20.026084789221198 30.0 86.230088815692483 20.0 40.0 86.230088815692483 20.0 52.026136456948429 79.012108357380797 21.065396808970785 60.0 86.230088815692483 20.0 71.586475926457908 78.600941011795101 20.411950167952657 77.327828026287847 79.847245415677236 17.6363173343615 89.999217489302467 84.033611844665145 20.182038835638124 9.9923805032452453 5.8261000391576623 17.850861077790515 38.74769979164688 3.9599542633500278 22.443471671365444 71.341004790232915 3.0442130586955796 20.272441536224619 78.172298578496225 1.3418246552303319 19.980886776816739 7.2827186159721373 12.261734219529869 18.702989983106253 27.521055644215163 10.497127672535145 16.431661915481602 57.945565965834199 14.703336634360827 18.963543136542999 77.259819998755248 9.5615325491159702 21.772076929687628 92.425253645997174 9.2138111733383532 17.892274562113741 28.261700160748831 22.380317387589727 21.097153994535169 41.765574465690094 24.836218895284581 19.122346130898091 49.493625554515653 22.32461138180043 20.612708338381626 65.8251666244295 19.287823776294076 22.617626683018091 89.214922638209259 17.896200321968852 16.031072768071471 12.466086837494615 28.86522254963138 22.685813453744402 19.951461658163591 26.780511845141564 18.365431762158941 31.501009989474372 26.62083756127846 18.89455192630896 50.141345771537381 32.273611771548467 22.199786330225727 61.962167336963603 28.299683356559751 19.845082828553739 67.89338645261671 27.134777982867259 18.460963953880118 81.505882070559494 35.895074423869026 19.075980217592633 91.668835274842678 35.960808769542616 17.421534423074519 14.724676782927741 41.994260536737322 20.252475847625476 19.978044850724345 40.181430708045518 24.835637671589758 29.491604583338979 43.326227347243147 20.745882467496152 36.079808518394934 40.114059117418371 19.794317527753709 49.025595254033071 40.360742742934889 24.901816736972911 59.009361842624116 47.270056217588568 20.798979587497396 68.611589320264613 46.90038347618826 20.857117772956769 81.898182075059964 38.218161813182562 22.430791822628223 89.864719935966406 46.793097407698383 19.474722492206006 9.9662687960117093 47.167109879036573 14.564070807186887 19.447608375622718 55.083539954561012 17.96510504711885 32.520363637332771 52.37089968920634 19.366717689576642 61.078482773504909 56.859320930917988 20.239111866561682 90.694673889581665 47.658832293553594 16.427637214539086 31.20290751852286 63.111744919429547 20.357695608108799 38.523616411707856 62.48662941286802 19.927323518883163 63.32123039237775 59.70387316276566 21.786478104604829 80.795203675389686 57.486935297674471 23.172360051888344 13.174338930406629 71.33410131307555 18.859164171920629 23.541654171701584 67.129190323832404 19.684027093797752 29.941449777133471 66.523920265304156 20.827661417068523 46.069488961736852 69.152036081818594 18.947494539833833 59.034976231938032 68.66762238388695 19.629001044773638 70.786044080004359 75.127212149537826 21.896376327497244 89.836047925886447 71.813407670870291 19.299083739591126 9.8750266289210469 87.706034604037328 19.478903389658392 21.271678011441356 87.396810838257679 20.65487899266574 47.399628809589508 79.540067586589416 19.988318031307209 70.861094235950432 86.917869606862482 18.630091304054016 79.738374920441672 85.977825139140052 22.039717196296774 91.061923753290557 81.124999358355581 18.774316630176177 11.711724860968525 3.4355665573182996 21.099327005040063 43.108085985620214 2.9805457886731865 19.493761086923307 66.611302983081998 2.2586944938742066 22.837158543266803 79.655356900814255 6.737427318646672 20.17576912931165 12.473321015454934 7.5384040666330971 19.854909652790482 28.165649290843238 11.651610846169529 23.520774590208983 64.389414540225999 11.666084405930237 20.457959562982744 83.718897742870539 6.3334506659919834 21.119720260552906 90.095890221107709 13.058353859028239 22.475856761435892 31.76278359631004 21.820106686020999 15.805680440215557 39.632595689268207 23.513065433040676 18.158011243762903 48.982658938649337 27.280573355083565 21.48276434703773 69.893338359438189 25.298949240594297 18.700416172215892 87.190233145628994 25.979908428662423 19.568401681313652 7.0476716418856933 30.194335153025637 17.561344438925257 19.928740890846516 33.369321662590764 17.37438577258597 27.723702176284672 28.49670045204526 16.1694554185271 50.283304485963377 32.310142873870568 15.493978999621156 59.980515428268063 34.795249027497682 17.856193870636975 71.672845770613563 35.815290956107788 22.768292863352237 81.03897436056161 27.415729150019651 23.328249099582965 87.381459336380487 34.912589736360765 21.84712830003663 4.6962292176220677 36.959175763410414 19.694398398960242 19.223989429355832 38.223733483103686 20.030438441072672 31.445821190077275 39.679401639948985 20.70557343386405 43.255200963725216 37.076356403559856 19.010875809833628 48.881189195129075 36.267146794338288 20.62592344173634 64.609274949384542 41.51787210986457 20.078889867278384 70.226685164695937 37.691961606501913 22.267531985524485 75.449263201481813 38.507387638035652 18.78016870834325 91.627716473642892 40.866102813803884 20.183695215857018 9.8684532295052403 57.304863522038474 22.266828076060296 18.628369212712887 56.270871962681305 20.903363017191239 25.145220720459669 47.7342659835627 21.087453410168582 59.606852776461551 53.178337484158796 22.646142096261645 91.1212604707558 47.064819687752149 22.108490779123169 28.06662453801658 64.83217395127491 18.837214749857043 39.250806563856457 66.148786860836182 22.055236560373263 60.026957231261569 61.308700080517333 15.459842648820818 78.431114402015425 63.310094636539354 18.503614166511852 8.6614262706512442 76.183792274554804 21.986542661701915 15.304744170471801 74.077066311215603 20.894894161393715 34.251189238198521 70.026015589258151 19.102972718554167 52.44075820576915 75.242964233188744 18.419267413157034 62.251531611060486 75.473754722738946 20.341109730675093 71.680975332128341 74.108525927501077 19.021481308835739 87.528251172844463 73.730775350361355 21.844449488387777 11.147237278494176 76.234214545999066 17.862761781593321 18.71128465624717 81.83007647501978 18.238267837539833 50.524567286172477 83.936482539087493 21.653240914303577 67.629897312528058 83.6687061861373 20.02306177534577 80.295776888131044 79.426096842373582 22.014045256952549 87.479783898615764 80.737981099889041 21.0836943841087 35.513674578993133 2.7787946825638818 17.405514845799477 75.763676170248416 4.1518605087416027 17.558981326489931 80.065847505227296 1.3328529870977497 24.089443942239097 8.5543722865976601 15.657342379312261 22.383493778170433 30.650170251831081 12.555839936365167 19.896488499449525 58.215617705716717 13.107981988626532 21.48288138173778 78.231813228266034 12.675087174864309 18.201618148286236 92.428546350923298 14.61444395612399 20.395582641501285 31.3667121477805 15.951313852260858 24.850967782607235 67.839362411601172 18.56523801350988 18.338469550603726 92.702413976357434 18.345954661479563 18.726549069730925 8.948676306728629 33.36960669276899 23.278813315213515 16.058145624708899 29.178433495783079 16.278908166671144 35.965807600156197 31.54984873931614 20.501525266520446 53.365258392951297 32.923193610644205 19.479215519590657 63.644067536795077 28.322439019071837 24.096235464062474 66.37633150796087 34.46216758399698 20.09559796770186 10.398217011113045 44.543034884548476 20.856511169426831 16.824307939779128 37.149069826427237 24.935917338302822 26.139339233019967 45.147262289525813 19.53059191333406 39.593120848066192 38.338944067854833 17.821552649191236 51.185251337420787 43.376569754040766 23.58370333565318 84.688415816073558 37.499464690722235 16.908441744803245 8.2424022326822932 47.614465188075911 19.728306429266084 32.483949289894952 48.43772653707574 15.922649958920841 89.796989571087281 55.088538237058216 18.394308923503957 30.093821000107241 61.028627255737995 24.239432434688847 59.05300352861353 65.129752172063618 22.529149881680993 85.195074903351397 57.125135381378712 16.134320817370416 11.686726248886742 68.068915317647068 22.829509614503756 20.386108280172145 65.819048619587022 21.410139435565451 32.744868305331707 68.897863600530741 23.855237500711457 48.0031031364406 64.771569965256532 22.776561368888171 59.558893431790501 67.395030836905377 22.222995717832394 92.082672380486954 75.700174253758149 18.314916134929522 49.003854805846061 82.679677273084081 17.537509224749684 10.163361730459082 4.5176045749171001 22.070233780177194 41.073343225320976 1 21.832800477817212 65.857083520512447 2.3882297153436087 19.316784729265628 79.976113134318979 5.3300445201235034 16.752790308101986 9.2897406937183966 9.5204769772381503 21.289357356383906 32.884470147101823 9.8813460920563472 20.368053937373944 61.373933795518255 3.8171959339549022 20.358024685965354 77.660726967809211 8.8696568954639226 15.937801623043795 86.355246273807879 11.555454684386662 23.190749791334628 29.424464337955627 17.494326078631619 20.832740465406193 36.627361873095289 23.841566464534562 21.688792577325479 51.448539327243076 23.197105531984448 20.658064174208587 75.717705704885688 20.968806653372127 21.696853545264577 90.70336417985547 20.964880212034984 19.977085988693709 10.817094483716309 32.241861702983016 19.525820795749244 18.629351690550727 34.547890025702912 21.966463128447998 28.162375473338571 32.532469437460982 23.542456555084875 46.334013758659367 27.193405937345698 20.043863593036026 57.976241550023445 32.651686940855726 21.488012852949019 73.392367255787121 30.574764987277383 21.479032060881988 76.751011854701986 31.259066534243413 17.975331133125344 92.692643910411462 31.493970039894677 19.847167823714482 11.287029333461021 39.341538842439888 22.257223866736805 21.658803700473985 39.175956035869042 16.343983547480683 33.832773330626047 36.576536663284394 19.949970858634462 40.130024775593242 44.490175173090321 20.896668252937239 52.500739997435424 44.323601011204303 18.83344561251549 58.135255091031446 43.163361353158329 19.738791459578152 71.596683185764505 41.826851514338401 19.094063120485771 80.310759324021163 47.708994879425198 21.073604869578805 93.333050407999707 37.93087017012509 20.879627511387984 12.960406536939882 52.371591745115701 22.333554726382854 19.213590238055176 49.899131964361253 19.73491975189464 32.197593393102423 49.979602326328717 20.275395806276734 59.282925306010107 47.59876778296492 16.400846196724689 88.559174882308483 54.409152343845264 21.459462374073635 29.517209051213872 54.430029419822077 17.032927074460027 41.294352675882088 65.584128592604841 17.036153470939603 56.411657050591231 60.701038933513125 20.185509995442018 75.951673780949989 60.488573208017257 20.442490963723849 6.1694469481817675 70.540366364189595 22.048361614330538 21.278149164718332 74.325703325449993 22.401428821445943 27.936019346166407 73.688105514193268 20.559367542873627 49.786870979888626 77.777250767578778 19.855617383458075 60.721502128006762 72.611225044046634 16.842098731714994 67.250573655211582 75.601778444372329 17.721934385909549 89.41379003328035 66.618428894140294 22.449254060425098 6.9591097097394101 80.368424541377919 22.435524452573517 18.281422724579571 80.834264287212974 21.467083733759388 52.235682288852445 78.44507944771037 15.698244864944336 69.91308556278257 84.292068409173368 22.517335945928075 81.918636057568932 77.794605859892201 17.060101505996794 90.827523374138877 88.272536922591286 21.030466654124943 40.407024643447642 8.2260893681858214 22.236442815134009 73.68817518380807 1.3383606118219413 17.60833426110926 76.048070359957492 1.3507398271917119 23.809281232875627 4.5863207366837946 7.3359159399852851 20.351787588497075 29.529242870512189 12.675602649153394 17.101527174075361 55.873345121094843 10.373420013034888 20.443940971501991 77.37854741464696 15.55453485951735 23.136843190822791 91.109464095091312 12.225131527255337 16.140026362134385 32.399492329893533 19.815547126940853 23.947830509741614 66.582112104907438 25.663091574088128 20.795687397468601 91.990636684818355 22.987220430413217 15.21238694805732 13.619149757480438 34.352724692240912 20.554774101917538 22.552272671004062 30.95047344751239 16.962756269992834 31.481282942476476 26.742480683788031 22.844149269694991 47.672789854566822 32.713780255653361 25.25745963561716 62.621508087488152 25.064141807284308 17.484107918847922 69.138709898488372 31.568694704075604 16.597272380864233 12.025090799111771 44.337974067175857 18.634269100741992 18.486542211229914 45.683285199358146 23.54436551831278 29.355867969862505 40.928549750116666 17.658095958763599 38.456009968960387 43.398931993600748 20.81377960402218 47.033479772533234 41.503632706836967 20.126134311807615 78.175696241543193 35.822105949833364 18.32720536748332 8.1338861569386776 50.625818545318822 17.298964092287321 28.124539871062339 51.914081109470018 17.431945962843351 87.381555903498722 51.5518514728209 16.736326893120978 33.86759140418544 59.831096566871445 21.391984519358846 59.679049244986153 60.461493925496868 23.171100366104906 82.808157086159454 56.412110302430648 20.334509378837922 12.66337993649382 70.150633718776049 14.529181785066516 21.60795840108824 67.253928207058038 17.928662468959725 29.274631900245964 70.535689768621268 19.037510378297938 49.826719116412519 66.116770929687107 18.390981044259281 57.177729961159159 71.660565513638716 23.481979822357722 89.425381677815707 73.933569663429566 14.251028287943674 45.267577034177897 84.170730476319179 22.186691813257212 42.633568465726199 5.7877354006592148 16.316910159120059 70.879337873977207 1.2507398271917118 24.60121575938717 14.627322007656295 9.6944062957605386 17.4128423378679 28.802944130148965 15.196792813257057 20.563665427295874 59.950674272378549 11.743177755157818 17.808276898131268 83.233531640721438 11.273225130506429 23.365138563513845 31.234920713412041 17.432297904512279 16.746537385870909 4.1672566356258107 25.578161954833419 19.496207431103265 21.291762798650023 31.676382140042143 22.060714067537301 28.409220356444138 32.126407815362064 16.71919146271383 81.587942468324087 25.567902206089453 18.700739807723068 6.9067739973331541 41.058328223353605 21.565676545291822 17.706896599463612 39.852815271571664 16.989342276768777 28.694317250725263 39.291296011240341 25.002754545961395 43.581363076889588 41.139434060276209 17.064398881199654 50.156594698312347 35.284540674998468 17.278697047091715 60.138201285408016 39.828138642683697 17.895200757323121 69.342702633754868 41.095654513586069 20.37052799447018 77.767906172105398 39.706195867432719 22.426425802748877 86.740947613633921 40.294014261660358 22.173357986033874 27.485281000169756 51.788424807510701 23.32259252418957 86.030892227612867 46.700937517038454 21.122517725651232 63.170033580027642 59.100877492722844 17.818865624319525 77.824119450649931 69.370860751380235 20.333081491400918 18.253805501175346 72.382119833465495 19.979494649290267 30.77428526419623 74.242790014396761 19.217306744942949 8.3051828857038874 77.904532291394347 20.781906990033058 18.720106695781102 86.569730111927385 20.722542622406401 83.377529436941671 82.131388373452978 22.056799780299635 88.593126480566369 81.27724807769961 18.746188373094594 34.809124869617293 1.3447847882795823 21.717163403298798 83.808815441562032 1.3500796068566516 22.09484343166752 32.985919183562032 13.293726979011005 16.911360952194389 79.032809961467407 15.164954025524938 20.79784437696507 35.627102317679444 17.607999561221934 24.683429800330256 68.672646367032485 18.967171515237577 20.596617811686084 89.070207491914843 16.111146313186776 21.381373782205291 16.900795160945147 33.216650101756514 19.706705421179876 33.496539886655121 31.791253657915419 22.249608810344867 51.995778407568558 35.35777203827034 21.842948552704264 61.824355676901014 33.067621982761324 22.912393732236016 17.194359357241524 36.687972671913712 21.595276151717989 38.899994036450998 41.407745987861716 13.834076379111172 48.563538435212735 44.83570019689769 21.872568979885564 84.893538131652775 34.832078472102566 21.430128027762198 5.8133504556939615 46.882241959642798 22.919394174615139 35.886187244904406 51.26336251526741 15.553637069989801 27.673222445291234 58.76430076598362 23.452846090260856 81.065901729170264 55.10554764088337