<?xml version="1.0" ?>
<VTKFile byte_order="LittleEndian" type="UnstructuredGrid" version="0.1">
<UnstructuredGrid>
<Piece NumberOfCells="0" NumberOfPoints="16">
<Points>
<DataArray NumberOfComponents="3" format="ascii" type="Float32">1.0 1 1.0000561806793336 3.0567405142342605 1 0.92951149127396471 5.3293552576940231 1.1638088526306456 1.2 8.052926026725304 1.1638088526306456 1.2 1.1039443323259766 1.1347743094651923 3.4564748344786334 4.7297679961238064 1 3.4241641649945893 6.9470739732746933 1 3.0931204917452586 9.0 1 4.0 2.1906442764613581 1 5.4028877501489108 4.8940285160441324 1 5.4161866372681793 7.0240901516307295 1.1655029036491675 5.8825348291688897 0.99521466119906365 1 7.0065593481605051 3.9179538795000979 1 7.1513852365576733 8.8283706447499508 1.1638088526306456 7.4872408478687076 6.0 1 8.0 3.1185367787345828 1.9623631063577036 2.7434588623165932 </DataArray>
</Points>
<Cells>
<DataArray Name="connectivity" format="ascii" type="Int32">0</DataArray>
<DataArray Name="offsets" format="ascii" type="Int32">0</DataArray>
<DataArray Name="types" format="ascii" type="UInt8">1</DataArray>
</Cells>
<PointData>
<DataArray Name="Points" NumberOfComponents="3" format="ascii" type="Float32">1.0 1 1.0000561806793336 3.0567405142342605 1 0.92951149127396471 5.3293552576940231 1.1638088526306456 1.2 8.052926026725304 1.1638088526306456 1.2 1.1039443323259766 1.1347743094651923 3.4564748344786334 4.7297679961238064 1 3.4241641649945893 6.9470739732746933 1 3.0931204917452586 9.0 1 4.0 2.1906442764613581 1 5.4028877501489108 4.8940285160441324 1 5.4161866372681793 7.0240901516307295 1.1655029036491675 5.8825348291688897 0.99521466119906365 1 7.0065593481605051 3.9179538795000979 1 7.1513852365576733 8.8283706447499508 1.1638088526306456 7.4872408478687076 6.0 1 8.0 3.1185367787345828 1.9623631063577036 2.7434588623165932 </DataArray>
<DataArray Name="forces" NumberOfComponents="3" format="ascii" type="Float32">0.0 0.0 0.0 -0.00088879361514933146 -0.024672381876697392 -0.048133917618653772 0.0 0.0 0.0 0.0 0.0 0.0 -0.06559275658102412 -0.019826583567726801 0.0079521145843775582 0.036645024091434109 -0.022333483418504288 -0.011121304870671977 0.0 0.0 0.0 0.0 0.0 0.0 0.010358174260760867 -0.0014537420192390709 0.0096507016297461331 -0.0020971803146066555 -0.0010358213426830216 0.011822304838032455 0.0020107473231677497 0.001156802912149124 -0.0049814916328491301 -0.0032677255879657941 0.0 0.0044791290055083872 -0.0078679061416239635 0.0 0.014082270300452556 0.019373232628452378 0.0 0.01712405122409941 0.0 0.0 0.0 0.019477745596274923 0.068286190882167558 0.0082099041292855793 </DataArray>
<DataArray Name="radii" format="ascii" type="Float32">1 1 1.2 1.2 1.2 1 1 1 1 1 1.2 1 1 1.2 1 1 </DataArray>
</PointData>
<CellData/>
</Piece>
</UnstructuredGrid>
</VTKFile>
