<?xml version="1.0" ?>
<VTKFile byte_order="LittleEndian" type="UnstructuredGrid" version="0.1">
<UnstructuredGrid>
<Piece NumberOfCells="0" NumberOfPoints="16">
<Points>
<DataArray NumberOfComponents="3" format="ascii" type="Float32">1.0 1 1.0000561806793336 3.0589217531059019 1 0.98654903980436071 5.4132319354719209 1.1654694560269214 1.1092306509696999 8.0733254394652683 1.1638088526306456 1.2 1.1714556223788368 1.1496699379398581 3.4818124939600628 4.8131321110281178 1.1562626332868522 3.5390628810740994 6.9959699233777703 1 3.1189930356520525 9.0 1 4.0 2.222513891520153 1 5.4276264267120249 4.9451544719234715 1 5.574257890795205 7.0701763303260758 1.1639031663434061 5.8717178234255689 0.99081417960332896 1 7.0228934046345746 3.803580026866757 1 7.3358717642198332 8.8150588642141798 1.1638088526306456 7.5294346668653764 6.0 1 8.0 3.0103817121611232 2.0977372372335492 2.6492935127812109 </DataArray>
</Points>
<Cells>
<DataArray Name="connectivity" format="ascii" type="Int32">0</DataArray>
<DataArray Name="offsets" format="ascii" type="Int32">0</DataArray>
<DataArray Name="types" format="ascii" type="UInt8">1</DataArray>
</Cells>
<PointData>
<DataArray Name="Points" NumberOfComponents="3" format="ascii" type="Float32">1.0 1 1.0000561806793336 3.0589217531059019 1 0.98654903980436071 5.4132319354719209 1.1654694560269214 1.1092306509696999 8.0733254394652683 1.1638088526306456 1.2 1.1714556223788368 1.1496699379398581 3.4818124939600628 4.8131321110281178 1.1562626332868522 3.5390628810740994 6.9959699233777703 1 3.1189930356520525 9.0 1 4.0 2.222513891520153 1 5.4276264267120249 4.9451544719234715 1 5.574257890795205 7.0701763303260758 1.1639031663434061 5.8717178234255689 0.99081417960332896 1 7.0228934046345746 3.803580026866757 1 7.3358717642198332 8.8150588642141798 1.1638088526306456 7.5294346668653764 6.0 1 8.0 3.0103817121611232 2.0977372372335492 2.6492935127812109 </DataArray>
<DataArray Name="forces" NumberOfComponents="3" format="ascii" type="Float32">0.0 0.0 0.0 0.00046485428314958825 -0.0086284412733170605 -0.013093055884430015 0.022178474549216873 0.001616417917611659 -0.0883541503477452 0.0 0.0 0.0 -0.027784866354843802 -0.013762705226923794 0.012548399313326226 -0.014863886407263559 -0.0073454288874101447 0.097339191358804686 0.0094617849359167738 -0.00087696524453806694 -0.001397156896326646 0.0 0.0 0.0 0.0089414032937917189 0.0 -0.011580684214560469 0.049826254718327939 -0.00013858887044904675 -0.079722288315618201 -0.0044248367761107804 9.1804205341532464e-05 -0.0041579169645455877 -0.0089414032937917189 0.0 0.011580684214560469 -0.051633504708423289 0.0 0.079540109412267607 0.014658176653902589 0.0 0.013926323703495206 0.0 0.0 0.0 0.010451672251602422 0.030613540632189067 -0.0066768523291742925 </DataArray>
<DataArray Name="radii" format="ascii" type="Float32">1 1 1.2 1.2 1.2 1.2 1 1 1 1 1.2 1 1 1.2 1 1 </DataArray>
</PointData>
<CellData/>
</Piece>
</UnstructuredGrid>
</VTKFile>
