<?xml version="1.0" ?>
<VTKFile byte_order="LittleEndian" type="UnstructuredGrid" version="0.1">
<UnstructuredGrid>
<Piece NumberOfCells="0" NumberOfPoints="366">
<Points>
<DataArray NumberOfComponents="3" format="ascii" type="Float32">8.0055024345123513 5.1549558064541863 20.383750017546795 20.0 7.8134515131014854 20.0 30.0 7.8134515131014854 20.0 40.870804557148418 1.6149457744344682 19.211546083468932 50.0 7.8134515131014854 20.0 59.806376083266557 7.413194725294443 19.919114743064817 68.975188206075742 3.7737239308054096 18.720384546983485 81.30598259988831 4.8290242782825343 18.402262651175167 90.0 7.8134515131014854 20.0 12.323348007964404 16.347858178490302 19.810973666144257 20.0 17.81345151310164 20.0 30.702989004163385 13.474732249650827 22.351356026806872 40.0 17.81345151310164 20.0 50.0 17.81345151310164 20.0 61.754639643390952 13.261841600580073 20.154452588372738 70.0 17.81345151310164 20.0 81.750895607025342 12.696680671997662 18.082586167973268 88.736737526100214 15.917505339388594 18.75083983945542 10.0 27.81345151310164 20.0 20.0 27.81345151310164 20.0 27.184714041592891 24.565003343914746 18.41888480708964 39.64117251411691 25.317687183403233 21.969157723032314 50.495874320123391 27.566415046962387 18.503028235625688 60.0 27.81345151310164 20.0 71.62265427842739 24.360007596596155 19.578117865630649 80.0 27.81345151310164 20.0 89.937884982090466 25.334317170849967 23.639808573505043 10.460086052065934 35.11894008533789 17.474028284370426 20.578127656400429 33.680920776804939 22.553237286841494 28.247019116006612 36.330229142951744 20.600786612208257 40.0 37.81345151310164 20.0 50.503611693786063 34.172303211125637 19.568562137650549 57.203102633060411 35.07744951111858 19.496908145443303 70.726865101929207 35.896300354906735 19.00744364561687 79.294408642693242 34.779177255541775 19.780891727779107 89.0994313042968 33.595184136790657 20.593185352237668 11.40679049579869 41.223597989561412 19.329791658047068 22.559948178340566 47.454545032509962 16.523504386803406 30.453295836292533 42.533095995617835 18.836508855762169 40.870541187738148 44.022769855562146 22.906811451206842 50.220789103155361 45.008038466933897 17.291186920125945 59.407276563900162 42.045486085234124 20.019691805333728 71.359080801612521 43.63721680170422 17.684038070910216 80.155496102749055 46.757138494578612 19.436993103900551 89.021890139138222 41.951390929235465 18.752985351757829 10.641317069567263 56.276350558394597 20.46382216208562 22.189903382726655 54.778997449056256 21.886579662377308 29.873072357272655 53.093219156100076 21.859702125342444 40.0 57.81345151310164 20.0 50.0 57.81345151310164 20.0 59.853274809008425 55.323618786630334 19.652584198082788 70.0 57.81345151310164 20.0 80.0 57.81345151310164 20.0 91.864933593315428 56.515751711416954 21.730961781306288 10.0 67.81345151310164 20.0 20.0 67.81345151310164 20.0 30.204350069655952 63.8221481058346 19.248840043934742 40.947685619642883 66.790917852676785 19.901551508154597 50.0 67.81345151310164 20.0 59.292211599441316 63.690781049878076 19.250798517739543 70.0 67.81345151310164 20.0 79.223600600308885 64.111903035966662 20.003235201300555 90.0 67.81345151310164 20.0 8.433762841726212 73.561641563815712 18.983588859722111 21.146960349680519 75.379106562332225 18.765780747568055 27.844413204089218 76.977130235332979 17.863642126748235 40.0 77.81345151310164 20.0 50.385292987495291 76.641749743549326 20.650947220891407 59.614714980042024 77.821883682736114 18.586062019507093 68.834489473617268 75.413089627565341 19.428671115957012 80.0 77.81345151310164 20.0 91.403709281307258 73.919112267433547 20.479044210609128 11.357332504218832 86.101574444924395 20.42629275785443 20.533681195408011 82.539546726582401 19.433388432531483 30.0 87.81345151310164 20.0 40.0 87.81345151310164 20.0 52.493861224937795 83.76375470848896 20.249953102424506 60.0 87.81345151310164 20.0 71.046794121690809 84.302945769060145 20.320826463261042 78.029013697725276 85.546400098775948 17.525523770814786 90.72602935930783 87.078755893704454 19.903129395243329 10.381897896535209 7.7915388620500625 18.046461167264795 39.396222035882403 6.9749441988211061 21.694998003335645 70.810412537303378 6.2968047745982032 20.879920333049899 77.894689315477365 2.1084739339550134 20.726035362904547 7.0858069795763265 16.450988159776642 19.625225502151029 27.307586206769429 15.646288828369578 15.896159293665457 57.670359955437263 19.226787175493957 19.386153927459191 76.479740139970872 14.480713873501438 21.977954774209763 92.831232247501717 14.381837155616902 18.464748291207332 28.923254293502605 27.805802329745639 21.973386236750766 41.765574465690094 26.419581592693739 19.122346130898091 49.605039772251743 24.043408362225914 20.411334742358473 66.515266450370973 24.847256601451836 22.297853926200769 90.062977034374782 22.694795411069357 16.420601301838456 12.904634455000307 34.532475973735352 23.032666786879798 20.091875001861801 32.49200362207192 18.692537428031759 31.660339524641714 32.704344120139133 19.129209510369908 49.372108170787193 36.701432243664158 23.171809069770443 61.069587365781864 33.635886914578819 19.978686935801907 67.29587879505182 32.616321812213307 18.562999197196678 81.645377296392056 38.452179020545898 19.817430248953748 91.682932210416425 37.670619643151241 17.966533878849031 13.386329018654436 46.655069211817782 20.164641271735668 20.172122574251812 44.817940306289955 23.618912399241257 28.820676369329298 48.555002175166926 20.544402839868365 35.844495121109851 45.88866351823372 19.750575876228755 49.104741227373843 44.272790593891528 23.161479021877714 59.009361842624116 48.853418914997725 20.798979587497396 68.611589320264613 48.483746173597417 20.857117772956769 81.036890686943423 42.575088833203985 21.05921665450818 90.342116671043584 49.586785008823782 19.729466731263997 10.174113636051654 52.839400738688163 15.601117724310757 19.446375625318563 56.658553731535321 17.972993971061094 31.787380921477489 56.834306665882444 19.655864680802736 60.467724904302813 59.2424317460491 19.877503015972213 90.064996238499077 52.08159522763389 17.06748612705503 30.641685054726192 67.482568985320768 20.371553040257286 39.273698862120249 64.5740682500291 19.933121532131882 62.175294724781374 64.291959300012024 22.408656129608463 80.609750975233112 62.225911998400761 22.744651863534116 12.379454592758021 75.939893301045629 18.533141733036082 22.99091429540098 72.340380623317358 19.351016636878551 30.282953469183241 70.884598871702906 21.506384316531435 47.929379463406221 74.373113598310127 19.315879458486286 59.163779817042553 73.431060748955446 21.021575019335771 70.786044080004359 76.710574846946983 21.896376327497244 89.019326898321097 77.021867805530235 19.198653881662644 9.8750266289210469 89.289397301446485 19.478903389658392 21.271678011441356 88.980173535666836 20.65487899266574 47.451003471029601 84.431591889855866 20.775827746283017 70.861094235950432 88.501232304271639 18.630091304054016 79.738374920441672 87.561187836549209 22.039717196296774 90.904712918191905 84.379673988131174 19.382852178623743 11.711724860968525 5.0189292547275688 21.099327005040063 41.144902272542105 5.3228696006846441 19.029557794824051 67.311516993330017 5.6364175451258021 23.633143742769555 79.655356900814255 8.3207900160559412 20.17576912931165 12.068074816488933 12.551449958554025 19.066313992254599 28.270881640459915 16.054724306943786 22.755634420674852 63.329799253780642 16.469282403399198 19.799508764911391 83.422337602234194 12.379715812560498 21.251639372917335 89.494126247184099 14.809452562685891 22.388796871623196 32.108738804958385 26.245893678225453 16.178641941751941 39.043595152529974 25.237244088549506 18.895851055520968 48.983968208782244 29.006320063176993 21.301808910262412 69.893338359438189 26.882311938003454 18.700416172215892 87.841747219654636 28.490623747466294 19.868463614131137 6.9595817079825144 34.337847662318154 17.841223136689909 20.832835701580436 38.487208136503945 18.266967417215159 28.192765321327418 33.652770981282472 16.972419311912414 50.276206804674516 35.497640057718257 16.606322843771551 59.980515428268063 36.37861172490684 17.856193870636975 71.618775939198144 37.470386259940817 22.770667466652505 80.341622949399593 32.597356318729972 22.452408656460413 87.367946227526332 36.497368745579344 21.841833427237802 4.6564748314296969 43.145475357895016 19.961224910888927 19.480046801833684 43.43469753849601 20.36483944851441 30.883010526369091 45.139698377072904 21.283132045839739 43.223950190917634 42.995835960186128 19.419313622094261 49.398262166303198 42.138696583387585 20.278316665456938 63.705486064433373 46.086467727789405 19.956121929477423 69.732644526435067 43.184525766499867 22.815756549643421 75.773083193855044 44.238893234875619 19.611087203448545 90.460998074824857 45.965325132566441 20.695308307628352 9.8684532295052403 58.888226219447631 22.266828076060296 18.628369212712887 57.854234660090462 20.903363017191239 25.572035586033877 53.396528089230401 21.272067925896479 59.629127908649942 54.780399698688903 22.381289980662849 90.759105593191748 53.128276539950612 21.176450900695322 28.413264599943883 66.48663785594853 19.027368291898167 39.287470935088663 67.711137928351206 22.009653594616417 60.625867063579129 66.834680329610762 15.388280627530012 79.144452440538558 68.641676774099693 18.965585735575264 8.6614262706512442 77.767154971963961 21.986542661701915 15.773617341124039 79.457190794139805 20.447831109373578 32.880588822781931 75.519402920713034 19.396661354451695 52.44075820576915 76.826326930597901 18.419267413157034 62.248274305012053 77.056917670890527 20.339430195275586 71.608429869578089 75.682903469282408 19.032034794783932 87.890580972264203 75.515078675380664 21.247490552856572 10.275770369332678 81.749990865502909 18.727429786183063 18.86983920483874 86.116597811401746 18.572532870795609 49.992693268704336 85.808097334030165 20.840707858445306 67.629897312528058 85.252068883546457 20.02306177534577 80.697918434173303 84.176736693186911 
[...]
<PointData>
<DataArray Name="Points" NumberOfComponents="3" format="ascii" type="Float32">8.0055024345123513 5.1549558064541863 20.383750017546795 20.0 7.8134515131014854 20.0 30.0 7.8134515131014854 20.0 40.870804557148418 1.6149457744344682 19.211546083468932 50.0 7.8134515131014854 20.0 59.806376083266557 7.413194725294443 19.919114743064817 68.975188206075742 3.7737239308054096 18.720384546983485 81.30598259988831 4.8290242782825343 18.402262651175167 90.0 7.8134515131014854 20.0 12.323348007964404 16.347858178490302 19.810973666144257 20.0 17.81345151310164 20.0 30.702989004163385 13.474732249650827 22.351356026806872 40.0 17.81345151310164 20.0 50.0 17.81345151310164 20.0 61.754639643390952 13.261841600580073 20.154452588372738 70.0 17.81345151310164 20.0 81.750895607025342 12.696680671997662 18.082586167973268 88.736737526100214 15.917505339388594 18.75083983945542 10.0 27.81345151310164 20.0 20.0 27.81345151310164 20.0 27.184714041592891 24.565003343914746 18.41888480708964 39.64117251411691 25.317687183403233 21.969157723032314 50.495874320123391 27.566415046962387 18.503028235625688 60.0 27.81345151310164 20.0 71.62265427842739 24.360007596596155 19.578117865630649 80.0 27.81345151310164 20.0 89.937884982090466 25.334317170849967 23.639808573505043 10.460086052065934 35.11894008533789 17.474028284370426 20.578127656400429 33.680920776804939 22.553237286841494 28.247019116006612 36.330229142951744 20.600786612208257 40.0 37.81345151310164 20.0 50.503611693786063 34.172303211125637 19.568562137650549 57.203102633060411 35.07744951111858 19.496908145443303 70.726865101929207 35.896300354906735 19.00744364561687 79.294408642693242 34.779177255541775 19.780891727779107 89.0994313042968 33.595184136790657 20.593185352237668 11.40679049579869 41.223597989561412 19.329791658047068 22.559948178340566 47.454545032509962 16.523504386803406 30.453295836292533 42.533095995617835 18.836508855762169 40.870541187738148 44.022769855562146 22.906811451206842 50.220789103155361 45.008038466933897 17.291186920125945 59.407276563900162 42.045486085234124 20.019691805333728 71.359080801612521 43.63721680170422 17.684038070910216 80.155496102749055 46.757138494578612 19.436993103900551 89.021890139138222 41.951390929235465 18.752985351757829 10.641317069567263 56.276350558394597 20.46382216208562 22.189903382726655 54.778997449056256 21.886579662377308 29.873072357272655 53.093219156100076 21.859702125342444 40.0 57.81345151310164 20.0 50.0 57.81345151310164 20.0 59.853274809008425 55.323618786630334 19.652584198082788 70.0 57.81345151310164 20.0 80.0 57.81345151310164 20.0 91.864933593315428 56.515751711416954 21.730961781306288 10.0 67.81345151310164 20.0 20.0 67.81345151310164 20.0 30.204350069655952 63.8221481058346 19.248840043934742 40.947685619642883 66.790917852676785 19.901551508154597 50.0 67.81345151310164 20.0 59.292211599441316 63.690781049878076 19.250798517739543 70.0 67.81345151310164 20.0 79.223600600308885 64.111903035966662 20.003235201300555 90.0 67.81345151310164 20.0 8.433762841726212 73.561641563815712 18.983588859722111 21.146960349680519 75.379106562332225 18.765780747568055 27.844413204089218 76.977130235332979 17.863642126748235 40.0 77.81345151310164 20.0 50.385292987495291 76.641749743549326 20.650947220891407 59.614714980042024 77.821883682736114 18.586062019507093 68.834489473617268 75.413089627565341 19.428671115957012 80.0 77.81345151310164 20.0 91.403709281307258 73.919112267433547 20.479044210609128 11.357332504218832 86.101574444924395 20.42629275785443 20.533681195408011 82.539546726582401 19.433388432531483 30.0 87.81345151310164 20.0 40.0 87.81345151310164 20.0 52.493861224937795 83.76375470848896 20.249953102424506 60.0 87.81345151310164 20.0 71.046794121690809 84.302945769060145 20.320826463261042 78.029013697725276 85.546400098775948 17.525523770814786 90.72602935930783 87.078755893704454 19.903129395243329 10.381897896535209 7.7915388620500625 18.046461167264795 39.396222035882403 6.9749441988211061 21.694998003335645 70.810412537303378 6.2968047745982032 20.879920333049899 77.894689315477365 2.1084739339550134 20.726035362904547 7.0858069795763265 16.450988159776642 19.625225502151029 27.307586206769429 15.646288828369578 15.896159293665457 57.670359955437263 19.226787175493957 19.386153927459191 76.479740139970872 14.480713873501438 21.977954774209763 92.831232247501717 14.381837155616902 18.464748291207332 28.923254293502605 27.805802329745639 21.973386236750766 41.765574465690094 26.419581592693739 19.122346130898091 49.605039772251743 24.043408362225914 20.411334742358473 66.515266450370973 24.847256601451836 22.297853926200769 90.062977034374782 22.694795411069357 16.420601301838456 12.904634455000307 34.532475973735352 23.032666786879798 20.091875001861801 32.49200362207192 18.692537428031759 31.660339524641714 32.704344120139133 19.129209510369908 49.372108170787193 36.701432243664158 23.171809069770443 61.069587365781864 33.635886914578819 19.978686935801907 67.29587879505182 32.616321812213307 18.562999197196678 81.645377296392056 38.452179020545898 19.817430248953748 91.682932210416425 37.670619643151241 17.966533878849031 13.386329018654436 46.655069211817782 20.164641271735668 20.172122574251812 44.817940306289955 23.618912399241257 28.820676369329298 48.555002175166926 20.544402839868365 35.844495121109851 45.88866351823372 19.750575876228755 49.104741227373843 44.272790593891528 23.161479021877714 59.009361842624116 48.853418914997725 20.798979587497396 68.611589320264613 48.483746173597417 20.857117772956769 81.036890686943423 42.575088833203985 21.05921665450818 90.342116671043584 49.586785008823782 19.729466731263997 10.174113636051654 52.839400738688163 15.601117724310757 19.446375625318563 56.658553731535321 17.972993971061094 31.787380921477489 56.834306665882444 19.655864680802736 60.467724904302813 59.2424317460491 19.877503015972213 90.064996238499077 52.08159522763389 17.06748612705503 30.641685054726192 67.482568985320768 20.371553040257286 39.273698862120249 64.5740682500291 19.933121532131882 62.175294724781374 64.291959300012024 22.408656129608463 80.609750975233112 62.225911998400761 22.744651863534116 12.379454592758021 75.939893301045629 18.533141733036082 22.99091429540098 72.340380623317358 19.351016636878551 30.282953469183241 70.884598871702906 21.506384316531435 47.929379463406221 74.373113598310127 19.315879458486286 59.163779817042553 73.431060748955446 21.021575019335771 70.786044080004359 76.710574846946983 21.896376327497244 89.019326898321097 77.021867805530235 19.198653881662644 9.8750266289210469 89.289397301446485 19.478903389658392 21.271678011441356 88.980173535666836 20.65487899266574 47.451003471029601 84.431591889855866 20.775827746283017 70.861094235950432 88.501232304271639 18.630091304054016 79.738374920441672 87.561187836549209 22.039717196296774 90.904712918191905 84.379673988131174 19.382852178623743 11.711724860968525 5.0189292547275688 21.099327005040063 41.144902272542105 5.3228696006846441 19.029557794824051 67.311516993330017 5.6364175451258021 23.633143742769555 79.655356900814255 8.3207900160559412 20.17576912931165 12.068074816488933 12.551449958554025 19.066313992254599 28.270881640459915 16.054724306943786 22.755634420674852 63.329799253780642 16.469282403399198 19.799508764911391 83.422337602234194 12.379715812560498 21.251639372917335 89.494126247184099 14.809452562685891 22.388796871623196 32.108738804958385 26.245893678225453 16.178641941751941 39.043595152529974 25.237244088549506 18.895851055520968 48.983968208782244 29.006320063176993 21.301808910262412 69.893338359438189 26.882311938003454 18.700416172215892 87.841747219654636 28.490623747466294 19.868463614131137 6.9595817079825144 34.337847662318154 17.841223136689909 20.832835701580436 38.487208136503945 18.266967417215159 28.192765321327418 33.652770981282472 16.972419311912414 50.276206804674516 35.497640057718257 16.606322843771551 59.980515428268063 36.37861172490684 17.856193870636975 71.618775939198144 37.470386259940817 22.770667466652505 80.341622949399593 32.597356318729972 22.452408656460413 87.367946227526332 36.497368745579344 21.841833427237802 4.6564748314296969 43.145475357895016 19.961224910888927 19.480046801833684 43.43469753849601 20.36483944851441 30.883010526369091 45.139698377072904 21.283132045839739 43.223950190917634 42.995835960186128 19.419313622094261 49.398262166303198 42.138696583387585 20.278316665456938 63.705486064433373 46.086467727789405 19.956121929477423 69.732644526435067 43.184525766499867 22.815756549643421 75.773083193855044 44.238893234875619 19.611087203448545 90.460998074824857 45.965325132566441 20.695308307628352 9.8684532295052403 58.888226219447631 22.266828076060296 18.628369212712887 57.854234660090462 20.903363017191239 25.572035586033877 53.396528089230401 21.272067925896479 59.629127908649942 54.780399698688903 22.381289980662849 90.759105593191748 53.128276539950612 21.176450900695322 28.413264599943883 66.48663785594853 19.027368291898167 39.287470935088663 67.711137928351206 22.009653594616417 60.625867063579129 66.834680329610762 15.388280627530012 79.144452440538558 68.641676774099693 18.965585735575264 8.6614262706512442 77.767154971963961 21.986542661701915 15.773617341124039 79.457190794139805 20.447831109373578 32.880588822781931 75.519402920713034 19.396661354451695 52.44075820576915 76.826326930597901 18.419267413157034 62.248274305012053 77.056917670890527 20.339430195275586 71.608429869578089 75.682903469282408 19.032034794783932 87.890580972264203 75.515078675380664 21.247490552856572 10.275770369332678 81.749990865502909 18.727429786183063 18.86983920483874 86.116597811401746 18.572532870795609 49.992693268704336 85.808097334030165 20.840707858445306 67.629897312528058 85.252068883546457 20.02306177534577 80.697918434173303 84.176736693186911 20.960940444089967 87.576739390485841 85.241563475097621 21.057108916767984 35.761024582784032 7.0912271598268912 18.834749903812121 75.405272846896878 5.7876379694252122 17.577090987086653 80.737923448904539 3.5464440819544802 22.415058629145928 8.5543722865976601 17.240705076721444 22.383493778170433 31.457697770401133 16.951807102185477 19.113128925518115 57.926352784783752 15.017566683878522 21.099395390880574 78.099023901065095 17.837456854348147 18.018808623719927 92.405861517527569 16.820284145181148 20.406546137552159 31.058276652618492 21.57841300379879 23.433453956729419 68.249060668701119 23.712762425387048 18.482875040130587 91.992147072942657 22.690471772189348 19.464021639157053 9.5325434551488577 35.249167689556764 22.292893239171857 16.683701126191604 33.743274671221698 17.012827553904586 34.968569236910426 36.538815402079862 20.510461304134843 53.002165776367278 37.03349142375226 19.30823402527929 63.765158996152287 34.520248165404638 23.926486521389418 66.37633150796087 36.045530281406137 20.09559796770186 9.7400870073627477 47.363801354247911 20.262748395246003 17.612707007870988 42.278671905126068 23.225272500075508 26.578415499570514 46.862632506080708 19.728893955935145 39.168081083449167 44.434371126951682 17.589288318665925 51.491806003591151 48.231380076031378 23.597755092777287 84.69336688343158 42.95348077779375 17.971508551809318 8.8955397025233864 51.609314112398977 19.680518002948311 32.225318567079682 54.3062410431288 15.710070598534209 89.796989571087281 56.671900934467374 18.394308923503957 29.559277377458852 66.97582511282755 23.944050105065099 59.05300352861353 66.713114869472776 22.529149881680993 84.069384740269896 61.595723357912433 16.845033550329436 12.932346145832042 73.741988716364816 22.586872459443978 19.629977842843676 71.099160044034861 20.993874899496102 32.577052592913368 74.21766355141007 22.743944996684558 47.904236050497978 69.639508640086248 22.028296280636145 59.428900622406978 70.695740449937233 21.408958579723986 92.082672380486954 77.283536951167306 18.314916134929522 49.229996097067186 87.850083271053464 19.116957810239271 10.132502722135985 6.0868838112417629 22.046115795948317 40.57828131981276 3.2497813206590274 21.574977837105166 66.214538276331623 3.8753737475370036 19.203551995184199 80.036872953431825 6.9731411678449646 16.781747717922578 9.6080789732736509 14.263020639277615 21.008911880617379 32.377382334738115 11.938396873329971 20.681037245856842 61.113412531920112 9.7600778637326702 20.524731641122401 78.990751862444839 14.58896774171834 16.742837066816755 87.102688638931454 16.156671249883516 21.950542746896225 29.665527488300903 22.79450998989935 20.355262621437543 37.809598812227662 28.131950066787969 20.65557034634951 51.095794233364707 25.29813254513396 19.992399947421507 74.838157495131398 25.450498753941464 20.768480609056756 90.186302383958861 26.900797553114685 20.400284520016729 10.647264187595542 37.06242400026791 20.504704135781626 18.791957522542976 36.157351817587376 21.946379166997644 28.181205306339457 34.476220366154806 22.678403176881083 47.233572057136143 32.656006233488498 19.479489982761173 58.984288176758938 37.483151119364763 21.506939844056735 73.425265312977714 35.586508251443476 21.356888294501495 76.589584241275134 36.731964047559806 18.427661513592295 91.680522181426397 36.104670101221139 20.383313909433273 10.716914740584645 44.370440813131765 20.941230322259475 21.504954879867995 44.14158058889322 17.483081430302061 33.946309250534057 41.70658239266443 19.179117382198577 40.061973210717611 46.024402322059849 20.897559389055775 52.466364232421391 45.892796961929136 18.810192338713222 58.410067613290991 44.815470677741089 19.542750505180823 70.950510200825363 46.991112924896214 18.950475119920114 80.310759324021163 49.292357576834355 21.073604869578805 92.23663007006094 42.735486613102651 20.185078481935328 12.234345299203747 54.413799703080542 21.76657006101528 19.137330670704348 54.54324986182155 19.980473339565915 32.072512768337994 53.423678260783085 20.141789238327913 59.952023459412061 52.797709479227876 17.08887355559246 89.545550790112372 59.250047090286273 22.120349247235751 30.373498831031615 60.460365772575749 17.954826872991561 41.284007155736319 67.152063577041957 17.134683921677166 56.442561143515938 65.529205602806968 20.478841804189006 76.479268232751934 66.298140646033843 20.821290047613612 6.9000754168651959 75.005395074692373 21.908267115884613 20.614651672310391 76.110533305830003 21.863791024707748 27.90818186233313 75.412903841399441 20.170817289676869 49.748940267471873 79.528324904299524 19.941778943139806 60.209828649059062 75.275629555028473 17.646380007154438 67.262182795830952 77.171909216662058 17.734521061657926 89.641309605602189 71.504426369940163 22.494853972950551 8.4140439629608341 84.222759564616766 21.324823117310206 18.382290051134682 82.480687257045076 21.227723645852954 51.847263031393197 83.369203448696226 16.724830455206323 69.920106112918802 85.865585902432031 22.503733944931774 81.349424946448423 84.13974109123302 17.420899328392615 90.827516763795074 89.855718743573078 21.030393230220412 40.407024643447642 9.8094520655950905 22.236442815134009 72.79192816216748 6.6935654560836593 17.898278752521144 76.606930868040834 2.2086640380692799 24.106242905215264 4.7881681013333166 13.676888894342852 19.818920929084303 29.440604386721983 14.415031441607297 17.210022811227585 55.715220457650695 16.232814523861816 19.902373129575576 77.37854741464696 17.137897556926539 23.136843190822791 91.108024012863893 13.822531774799385 16.332562443938642 31.191211151870416 25.25393928646935 23.127424749298477 66.622645613057799 27.381563216438206 20.660221596022659 91.984369190704754 24.564484287464118 15.216315274485973 13.233812802027911 36.00339816999616 20.565741854404699 22.388944213525669 32.42896364846797 17.088852841119557 30.911861407745089 32.186022882491564 22.617959028687334 48.120318641530133 34.726438626798625 24.675788677032699 62.749569349410699 30.934268395613316 18.276704440938872 69.63756616237761 33.809529983025833 17.530210028216786 12.109345702125717 49.669220392998461 18.657632345050146 18.48932235980919 47.262609067721783 23.544488473829851 29.803365166868961 46.879133998177586 17.506963428295816 38.320882793845691 45.059676960057978 20.736150297019059 47.463008269769908 45.611553086520182 20.214822168871052 78.437351991754952 40.922427788284217 19.188234267096217 8.4144706728686547 54.798579825220891 18.059089181197695 28.648002462903339 56.68706939007825 17.888699245173104 87.415132133287329 53.121610515854812 16.740470483865352 33.360572738237671 65.132864075988792 20.50458644393952 60.263701309262636 62.353968685567274 22.994837828268302 83.287725083217609 61.894989552911404 20.35278039106014 13.252779627486872 75.483188249546785 15.064114371176624 22.098650750219136 69.876605718945271 18.46226422086831 29.654444738093357 72.056561772906491 18.975544000537322 49.641440592158901 71.203266637512129 19.261601237930908 57.787962415282244 76.470180031932415 22.341876627525778 89.324084553565029 78.604011378883229 15.983280290508404 45.288491640217075 85.741095977398587 22.173141547537053 42.365116202735095 6.9094665371627597 16.988215116823355 70.005127225446074 3.3638626063363866 22.802420228955132 14.202848078393522 11.378539367163015 17.679800263511932 29.117445592382968 17.590313614405954 20.5188412053853 59.785990852906245 16.364681574479235 18.825719329658313 83.670263928736887 15.585313805076934 22.878022933006058 30.570004138843561 23.064575646728969 16.876533994166035 5.212468661955187 31.639819459604134 19.478777983852382 21.413243599855399 37.037829873535387 21.509697912675804 28.620059009463851 37.231850610496814 16.883769945014471 81.244349313087966 31.108643661467092 19.27443771650815 7.2993671925351693 45.479955291150254 20.689652534506404 17.332699611451048 44.496046566991765 17.681823598690034 29.082816304406634 44.076769318740126 24.216299424466527 42.521675074520324 45.665836737010594 17.10058908734241 50.333991903550185 39.369087710382814 18.170398018175014 60.581498526109065 45.909777510277813 18.181469712337641 69.850850264458003 43.320174130915348 20.00956373680242 78.219731544639771 45.234352253596491 22.065514491749518 87.414057568576524 46.103033505317448 22.618181042337334 27.689168029258202 55.677095393670619 23.099205194626681 87.208019100657523 52.526152582336771 21.321577216533409 62.384228752743532 65.01901665796602 17.958141207886108 77.824652047417587 70.953290612229665 20.332529870086518 18.908170704055539 77.662398155916605 20.348100580235787 31.151668085288552 78.566580069526069 18.54574695645276 8.5254902281699234 80.963597876395951 20.760716552041156 18.720434668238727 88.148632092865441 20.717833264454736 83.252741550786666 83.727932043981653 22.010162191302232 88.333706840217957 83.20678742488154 19.314974214593065 36.604969253240078 4.6537074789875419 21.353976927555589 83.51969788419764 5.8027864282859412 22.035016861139486 32.678679866318241 15.160676159452093 17.37416549083941 78.918770927487941 16.812074749893252 20.485312977632336 34.447004333739002 22.666012925716615 24.025196288934556 68.632633737377347 21.299609558567315 19.805944964799281 89.685819778610011 21.51607049812856 21.972519790426688 16.89809705716188 34.786470443185102 19.673230821728914 34.065421835305862 34.135876995730264 21.577496109499428 51.824177598545901 36.895853470874854 21.841216194613846 61.316663797219654 34.776698531405259 22.563194708287671 17.502412760872669 39.668577612755101 22.30994600619449 38.748030948847031 45.711649472344291 14.243927965545017 48.343970208024921 49.185886712021365 22.121172387869553 83.854863456823736 40.427141176990716 20.405701206344144 6.3369862664214436 51.372399958081203 22.206759303858327 34.897929139309014 56.71555016149707 15.939487031653449 27.232889107643789 64.263728832491296 23.461659202701913 80.805429370209353 60.375125031244743 17.949373527307777 11.843388846360192 72.469681611081072 19.39990822999474 16.760051919891431 73.136840042801637 21.775945879537066 29.121055886459459 74.647851184630355 23.658724833495178 49.531517839996162 71.811134653067