<?xml version="1.0" ?>
<VTKFile byte_order="LittleEndian" type="UnstructuredGrid" version="0.1">
<UnstructuredGrid>
<Piece NumberOfCells="0" NumberOfPoints="366">
<Points>
<DataArray NumberOfComponents="3" format="ascii" type="Float32">8.2801209843462189 6.4025845313085004 20.598379268898761 20.0 8.3161063376758566 20.0 30.0 8.3161063376758566 20.0 40.833492403833127 2.4011328276510198 19.559699117146849 50.0 8.3161063376758566 20.0 60.0 8.3161063376758566 20.0 68.557161794890177 4.9068430773971814 18.793547301955382 81.180392869325374 6.1821070271992262 18.241898230016865 90.0 8.3161063376758566 20.0 11.517026680136537 17.09160135399787 20.052888774835683 20.0 18.316106337675976 20.0 31.024440641242972 14.282743211655367 22.015177112812946 40.0 18.316106337675976 20.0 50.0 18.316106337675976 20.0 61.665097003470905 13.699235008359693 20.200752652490284 70.0 18.316106337675976 20.0 81.222871482438649 14.439651440439931 18.152791201571873 88.321101557115199 17.134167323701504 19.531721365257983 10.0 28.316106337675976 20.0 20.0 28.316106337675976 20.0 27.926669417563385 25.261702555739934 18.994670844606137 39.235248962148511 27.142744808730463 21.678033181762729 50.609154749201387 28.129992519694127 18.84369766119227 60.0 28.316106337675976 20.0 72.145660694788944 25.765712632753896 19.789395318674764 80.0 28.316106337675976 20.0 89.941017412195308 26.949735708508214 22.825019074880625 10.232139933189659 36.604293453077844 18.267132989878689 20.472990816933745 35.188727021667404 22.445879270936 28.233562023436015 37.048983632231497 21.025601382518733 40.0 38.316106337675976 20.0 49.778887319868041 35.037598071250116 19.54882147121879 57.597858881125717 36.811959514021453 19.942382551320957 71.167021735319224 36.612471455088219 19.35066722764244 78.708979997525631 36.345862195887555 19.570383035723339 89.732326423657156 35.43714182570946 20.48376192573242 10.913014442048564 43.582616625888555 19.806073120475013 22.194250566602861 47.761184498967751 16.897761842879603 31.23143493272207 43.581421479783252 18.941675346482761 40.782123095212775 45.350584786535308 22.717972008033872 50.513347210651318 46.250072059382155 17.489086043938933 59.348465918548946 43.507335374932694 19.946113025904094 71.263204786427522 45.580353206456174 17.972952719678627 80.137011606456483 48.104831257335128 19.624564129697067 89.734358684667555 43.326511606970612 19.070373797306903 10.697587026511602 56.731949883959246 20.406028143248804 21.504609005704651 55.939764983073701 21.442827677743477 30.170158363658274 54.301638772484829 21.618831747443974 40.0 58.316106337675976 20.0 50.0 58.316106337675976 20.0 59.858004248361432 55.874879751542714 19.281715163911439 70.0 58.316106337675976 20.0 80.0 58.316106337675976 20.0 91.215901915900872 58.08218487721183 21.778046513330121 10.0 68.316106337675976 20.0 20.0 68.316106337675976 20.0 30.265176270093196 64.285837442176131 18.970195538305141 40.851704895817527 67.864245865271613 19.551228037667794 50.0 68.316106337675976 20.0 58.935815142625437 65.494956150561279 19.386844051004015 70.0 68.316106337675976 20.0 78.663234987380378 65.731164104439486 20.299249857332306 90.0 68.316106337675976 20.0 8.4552145440246917 75.014384284068285 19.727954471771007 20.820791182626127 76.651296040304103 19.420311249979981 27.857015144858085 77.768362982617845 18.319585305533966 40.0 78.316106337675976 20.0 50.281033593755758 77.97715144071212 20.563690309135644 59.745450877976772 78.354803596904958 18.379630579508458 68.749000582753112 76.744894484734857 19.226971590608397 80.0 78.316106337675976 20.0 91.013116461803321 74.585301177837877 20.925799183110744 10.705024525619354 86.886526070947852 20.625430054205381 20.197250628991569 83.646273301681163 19.713983253127257 30.0 88.316106337675976 20.0 40.0 88.316106337675976 20.0 52.350558536572457 84.877657094329209 19.468695812801339 60.0 88.316106337675976 20.0 70.919422558266831 85.613979692976912 20.567603154399649 78.754775330412016 86.436501771794013 17.564849844957219 90.738028687485354 88.405428152283179 19.987728654521117 10.381897896535209 8.2941936866244337 18.046461167264795 39.481189410213425 8.3610582921596084 21.740511483078716 71.361237523654225 6.9539330852693286 20.36734571125945 77.876487223548665 3.4694002782239619 21.608131288857642 7.1013587651468226 16.677942755456471 19.888195319774077 27.711522706289141 16.516579806343117 16.144969845361043 57.714945354206613 19.24506187474547 19.475466945476576 76.558632272263196 15.860105956068525 22.079675333056393 92.536018819219919 15.396315024781035 18.09947038627763 29.59312784140937 28.086558669325825 22.306499485308933 41.765574465690094 26.922236417268074 19.122346130898091 49.752332659066653 24.711348808663352 20.348070282581087 66.52496549482214 26.221170240846657 22.149934456839748 90.267110721273866 24.028963605098774 16.298168119973401 12.902993125621466 35.864607989424371 22.718208726864791 20.451431327333321 33.598017957349725 18.441515415130461 31.494457640954533 33.790815915014868 19.902405584840025 49.581938144366248 37.289882628370897 23.203474782245234 61.481978247579491 34.267990545682551 19.762120290209527 67.704748494857071 33.990565989639485 18.445689874496317 81.645377296392056 38.954833845120234 19.817430248953748 91.630716936385653 37.974411666948754 18.32607638108523 12.845287436571311 48.352614630603888 19.872379618949498 19.926344419759058 46.055558111065913 23.459348057707185 29.038465326860958 49.38493197847383 19.871228621674167 36.291125957711856 46.8706690431951 19.923449405671814 48.758322738180496 45.68609966584954 22.412545794392088 59.009361842624116 49.356073739572061 20.798979587497396 68.611589320264613 48.986400998171753 20.857117772956769 80.557911363141102 43.332725031870659 20.614599670163305 90.342116671043584 50.089439833398117 19.729466731263997 9.8181572118383205 54.482961438558064 16.337729234352722 19.442492479577613 57.097606906838436 18.052288109444817 31.091614404649345 58.003020152541914 19.264215647074717 60.467724904302813 59.745086570623435 19.877503015972213 89.729987810494251 53.341591453227316 17.026143253530876 31.129023795044908 68.263249922971568 20.391059594938067 39.378821325819601 65.230655589983868 19.929144437968599 61.780737764728812 64.989095697624563 22.52964528304668 81.221607193570847 63.419015530390205 21.958463616342467 12.488777482201449 76.661003617457894 17.869491577485963 22.504685148352593 73.222746760940808 19.078049590426378 30.235831644349634 71.89760893245257 21.12343557981168 48.356093320801428 74.910415781983502 19.328453125524007 58.862505394101284 74.769781811890752 21.442218286364938 70.786044080004359 77.213229671521319 21.896376327497244 88.96249802446826 78.406498357193925 18.643246018558234 9.8750266289210469 89.79205212602082 19.478903389658392 21.271678011441356 89.482828360241172 20.65487899266574 47.19698344761494 85.722982933718228 20.943756072646323 70.861094235950432 89.003887128845975 18.630091304054016 79.738374920441672 88.063842661123545 22.039717196296774 90.900921835545745 84.941837174668123 19.393890765158734 11.711724860968525 5.52158407930194 21.099327005040063 41.272223676002675 6.543808175171864 18.810020408459909 68.064363936841346 6.4360272151562601 23.278667903439654 79.655356900814255 8.8234448406303123 20.17576912931165 12.454071770657293 13.44727627452334 18.819461480249437 28.471850713297751 17.380073901622055 22.372365897905119 62.156248757055678 17.432530983801811 19.600735962844595 83.325870018023565 14.422441388658209 21.221779531742207 89.289588401617834 15.434885548478251 22.348257323302878 31.733758069340436 26.702114295779545 16.409549221465593 39.043595152529974 25.739898913123842 18.895851055520968 48.983968208782244 29.508974887751329 21.301808910262412 69.893338359438189 27.38496676257779 18.700416172215892 88.208596424433168 28.7950883068415 20.029691226181416 6.848205234812788 34.966388091479679 18.216066724553915 20.880996627578028 39.240305100642949 19.123718916218841 28.287464525319653 35.647331548124846 16.952772346107086 50.276206804674516 36.000294882292593 16.606322843771551 59.980515428268063 36.881266549481175 17.856193870636975 71.674661993827414 37.918825806653274 22.70668306191439 80.492223947374356 33.564497734584563 21.64996854641031 87.367946227526332 37.000023570153679 21.841833427237802 5.9076999594473341 45.011260244192094 20.202709165259879 19.186713535297844 44.941600523827731 19.684712668352407 30.478548364093339 46.074107563911497 21.907126387746292 43.04139316416029 44.777965515974579 18.909581449622888 49.604517017782882 42.772243567059256 19.888350329603607 62.808299334467385 47.176542702134299 19.555934323472496 69.751705576784701 44.323515951586337 22.386102670189157 76.323221839032499 45.666822260296406 20.146047166176228 89.78571817117863 47.197189858873081 21.121466059102477 9.8684532295052403 59.390881044021967 22.266828076060296 18.628369212712887 58.356889484664798 20.903363017191239 26.048069466278196 55.091222655284611 21.670403775240246 59.652511122185537 55.355695221244105 22.088872645966546 90.012399224112443 54.476369783167634 21.256945476627788 28.595558856991133 67.086327682052058 19.136987252772705 39.356783571676473 68.180452476704531 21.913020527381178 60.932885861829803 67.587102180915181 16.01574011672238 79.018742194337946 70.004540641318513 19.095786396665787 8.6614262706512442 78.269809796538297 21.986542661701915 16.940162379289799 79.897738536244574 20.383664547023216 32.467011214359545 77.35921401792956 19.353522314033487 52.44075820576915 77.328981755172236 18.419267413157034 62.248274305012053 77.559572495464863 20.339430195275586 71.507128756750234 76.186105704555743 19.045793146250247 88.06516182424032 76.302636213617149 20.90477172622855 9.9648416915605793 82.718189579793318 19.088633202008694 18.854686425023818 87.462382730781854 18.790111702347499 49.956565629269285 86.39255675719275 20.774368816934029 67.629897312528058 85.754723708120792 20.02306177534577 81.184214584734747 85.208820002935383 20.88408862759
[...]
<PointData>
<DataArray Name="Points" NumberOfComponents="3" format="ascii" type="Float32">8.2801209843462189 6.4025845313085004 20.598379268898761 20.0 8.3161063376758566 20.0 30.0 8.3161063376758566 20.0 40.833492403833127 2.4011328276510198 19.559699117146849 50.0 8.3161063376758566 20.0 60.0 8.3161063376758566 20.0 68.557161794890177 4.9068430773971814 18.793547301955382 81.180392869325374 6.1821070271992262 18.241898230016865 90.0 8.3161063376758566 20.0 11.517026680136537 17.09160135399787 20.052888774835683 20.0 18.316106337675976 20.0 31.024440641242972 14.282743211655367 22.015177112812946 40.0 18.316106337675976 20.0 50.0 18.316106337675976 20.0 61.665097003470905 13.699235008359693 20.200752652490284 70.0 18.316106337675976 20.0 81.222871482438649 14.439651440439931 18.152791201571873 88.321101557115199 17.134167323701504 19.531721365257983 10.0 28.316106337675976 20.0 20.0 28.316106337675976 20.0 27.926669417563385 25.261702555739934 18.994670844606137 39.235248962148511 27.142744808730463 21.678033181762729 50.609154749201387 28.129992519694127 18.84369766119227 60.0 28.316106337675976 20.0 72.145660694788944 25.765712632753896 19.789395318674764 80.0 28.316106337675976 20.0 89.941017412195308 26.949735708508214 22.825019074880625 10.232139933189659 36.604293453077844 18.267132989878689 20.472990816933745 35.188727021667404 22.445879270936 28.233562023436015 37.048983632231497 21.025601382518733 40.0 38.316106337675976 20.0 49.778887319868041 35.037598071250116 19.54882147121879 57.597858881125717 36.811959514021453 19.942382551320957 71.167021735319224 36.612471455088219 19.35066722764244 78.708979997525631 36.345862195887555 19.570383035723339 89.732326423657156 35.43714182570946 20.48376192573242 10.913014442048564 43.582616625888555 19.806073120475013 22.194250566602861 47.761184498967751 16.897761842879603 31.23143493272207 43.581421479783252 18.941675346482761 40.782123095212775 45.350584786535308 22.717972008033872 50.513347210651318 46.250072059382155 17.489086043938933 59.348465918548946 43.507335374932694 19.946113025904094 71.263204786427522 45.580353206456174 17.972952719678627 80.137011606456483 48.104831257335128 19.624564129697067 89.734358684667555 43.326511606970612 19.070373797306903 10.697587026511602 56.731949883959246 20.406028143248804 21.504609005704651 55.939764983073701 21.442827677743477 30.170158363658274 54.301638772484829 21.618831747443974 40.0 58.316106337675976 20.0 50.0 58.316106337675976 20.0 59.858004248361432 55.874879751542714 19.281715163911439 70.0 58.316106337675976 20.0 80.0 58.316106337675976 20.0 91.215901915900872 58.08218487721183 21.778046513330121 10.0 68.316106337675976 20.0 20.0 68.316106337675976 20.0 30.265176270093196 64.285837442176131 18.970195538305141 40.851704895817527 67.864245865271613 19.551228037667794 50.0 68.316106337675976 20.0 58.935815142625437 65.494956150561279 19.386844051004015 70.0 68.316106337675976 20.0 78.663234987380378 65.731164104439486 20.299249857332306 90.0 68.316106337675976 20.0 8.4552145440246917 75.014384284068285 19.727954471771007 20.820791182626127 76.651296040304103 19.420311249979981 27.857015144858085 77.768362982617845 18.319585305533966 40.0 78.316106337675976 20.0 50.281033593755758 77.97715144071212 20.563690309135644 59.745450877976772 78.354803596904958 18.379630579508458 68.749000582753112 76.744894484734857 19.226971590608397 80.0 78.316106337675976 20.0 91.013116461803321 74.585301177837877 20.925799183110744 10.705024525619354 86.886526070947852 20.625430054205381 20.197250628991569 83.646273301681163 19.713983253127257 30.0 88.316106337675976 20.0 40.0 88.316106337675976 20.0 52.350558536572457 84.877657094329209 19.468695812801339 60.0 88.316106337675976 20.0 70.919422558266831 85.613979692976912 20.567603154399649 78.754775330412016 86.436501771794013 17.564849844957219 90.738028687485354 88.405428152283179 19.987728654521117 10.381897896535209 8.2941936866244337 18.046461167264795 39.481189410213425 8.3610582921596084 21.740511483078716 71.361237523654225 6.9539330852693286 20.36734571125945 77.876487223548665 3.4694002782239619 21.608131288857642 7.1013587651468226 16.677942755456471 19.888195319774077 27.711522706289141 16.516579806343117 16.144969845361043 57.714945354206613 19.24506187474547 19.475466945476576 76.558632272263196 15.860105956068525 22.079675333056393 92.536018819219919 15.396315024781035 18.09947038627763 29.59312784140937 28.086558669325825 22.306499485308933 41.765574465690094 26.922236417268074 19.122346130898091 49.752332659066653 24.711348808663352 20.348070282581087 66.52496549482214 26.221170240846657 22.149934456839748 90.267110721273866 24.028963605098774 16.298168119973401 12.902993125621466 35.864607989424371 22.718208726864791 20.451431327333321 33.598017957349725 18.441515415130461 31.494457640954533 33.790815915014868 19.902405584840025 49.581938144366248 37.289882628370897 23.203474782245234 61.481978247579491 34.267990545682551 19.762120290209527 67.704748494857071 33.990565989639485 18.445689874496317 81.645377296392056 38.954833845120234 19.817430248953748 91.630716936385653 37.974411666948754 18.32607638108523 12.845287436571311 48.352614630603888 19.872379618949498 19.926344419759058 46.055558111065913 23.459348057707185 29.038465326860958 49.38493197847383 19.871228621674167 36.291125957711856 46.8706690431951 19.923449405671814 48.758322738180496 45.68609966584954 22.412545794392088 59.009361842624116 49.356073739572061 20.798979587497396 68.611589320264613 48.986400998171753 20.857117772956769 80.557911363141102 43.332725031870659 20.614599670163305 90.342116671043584 50.089439833398117 19.729466731263997 9.8181572118383205 54.482961438558064 16.337729234352722 19.442492479577613 57.097606906838436 18.052288109444817 31.091614404649345 58.003020152541914 19.264215647074717 60.467724904302813 59.745086570623435 19.877503015972213 89.729987810494251 53.341591453227316 17.026143253530876 31.129023795044908 68.263249922971568 20.391059594938067 39.378821325819601 65.230655589983868 19.929144437968599 61.780737764728812 64.989095697624563 22.52964528304668 81.221607193570847 63.419015530390205 21.958463616342467 12.488777482201449 76.661003617457894 17.869491577485963 22.504685148352593 73.222746760940808 19.078049590426378 30.235831644349634 71.89760893245257 21.12343557981168 48.356093320801428 74.910415781983502 19.328453125524007 58.862505394101284 74.769781811890752 21.442218286364938 70.786044080004359 77.213229671521319 21.896376327497244 88.96249802446826 78.406498357193925 18.643246018558234 9.8750266289210469 89.79205212602082 19.478903389658392 21.271678011441356 89.482828360241172 20.65487899266574 47.19698344761494 85.722982933718228 20.943756072646323 70.861094235950432 89.003887128845975 18.630091304054016 79.738374920441672 88.063842661123545 22.039717196296774 90.900921835545745 84.941837174668123 19.393890765158734 11.711724860968525 5.52158407930194 21.099327005040063 41.272223676002675 6.543808175171864 18.810020408459909 68.064363936841346 6.4360272151562601 23.278667903439654 79.655356900814255 8.8234448406303123 20.17576912931165 12.454071770657293 13.44727627452334 18.819461480249437 28.471850713297751 17.380073901622055 22.372365897905119 62.156248757055678 17.432530983801811 19.600735962844595 83.325870018023565 14.422441388658209 21.221779531742207 89.289588401617834 15.434885548478251 22.348257323302878 31.733758069340436 26.702114295779545 16.409549221465593 39.043595152529974 25.739898913123842 18.895851055520968 48.983968208782244 29.508974887751329 21.301808910262412 69.893338359438189 27.38496676257779 18.700416172215892 88.208596424433168 28.7950883068415 20.029691226181416 6.848205234812788 34.966388091479679 18.216066724553915 20.880996627578028 39.240305100642949 19.123718916218841 28.287464525319653 35.647331548124846 16.952772346107086 50.276206804674516 36.000294882292593 16.606322843771551 59.980515428268063 36.881266549481175 17.856193870636975 71.674661993827414 37.918825806653274 22.70668306191439 80.492223947374356 33.564497734584563 21.64996854641031 87.367946227526332 37.000023570153679 21.841833427237802 5.9076999594473341 45.011260244192094 20.202709165259879 19.186713535297844 44.941600523827731 19.684712668352407 30.478548364093339 46.074107563911497 21.907126387746292 43.04139316416029 44.777965515974579 18.909581449622888 49.604517017782882 42.772243567059256 19.888350329603607 62.808299334467385 47.176542702134299 19.555934323472496 69.751705576784701 44.323515951586337 22.386102670189157 76.323221839032499 45.666822260296406 20.146047166176228 89.78571817117863 47.197189858873081 21.121466059102477 9.8684532295052403 59.390881044021967 22.266828076060296 18.628369212712887 58.356889484664798 20.903363017191239 26.048069466278196 55.091222655284611 21.670403775240246 59.652511122185537 55.355695221244105 22.088872645966546 90.012399224112443 54.476369783167634 21.256945476627788 28.595558856991133 67.086327682052058 19.136987252772705 39.356783571676473 68.180452476704531 21.913020527381178 60.932885861829803 67.587102180915181 16.01574011672238 79.018742194337946 70.004540641318513 19.095786396665787 8.6614262706512442 78.269809796538297 21.986542661701915 16.940162379289799 79.897738536244574 20.383664547023216 32.467011214359545 77.35921401792956 19.353522314033487 52.44075820576915 77.328981755172236 18.419267413157034 62.248274305012053 77.559572495464863 20.339430195275586 71.507128756750234 76.186105704555743 19.045793146250247 88.06516182424032 76.302636213617149 20.90477172622855 9.9648416915605793 82.718189579793318 19.088633202008694 18.854686425023818 87.462382730781854 18.790111702347499 49.956565629269285 86.39255675719275 20.774368816934029 67.629897312528058 85.754723708120792 20.02306177534577 81.184214584734747 85.208820002935383 20.88408862759567 87.734639941989727 85.913456265299942 20.693706196657864 35.948064295105169 7.752355520152868 19.393075010051593 74.421770835522651 6.6810581473319752 17.928241043783196 81.168346204939922 5.1743856201899749 22.188157004113744 8.5543722865976601 17.743359901295779 22.383493778170433 31.425445721958955 17.66170775555138 18.917715665705867 57.49899389630226 15.976131441478413 20.819522611529379 78.31734053645107 18.534061033619665 18.361368284101427 92.405861517527569 17.322938969755484 20.406546137552159 31.586644792576568 23.97932623724294 23.089004400926061 68.628375214828921 24.348193846307367 18.86374909456616 91.478835727828809 23.631546344705665 20.016534661428931 9.6685420109917555 35.969130271145573 22.078251776097325 16.710789144178303 35.003625199670175 17.348958240921636 34.772893881844134 37.111587745504742 20.741644402305599 52.609430903340375 38.075823688909864 19.98387269083263 63.352809109562997 35.664443521475732 23.664792548315283 66.37633150796087 36.548185105980473 20.09559796770186 9.7422444617638817 47.860215428183743 20.26378887066009 17.810316254695845 42.928927195705391 22.768090226347343 26.578415499570514 47.365287330655043 19.728893955935145 39.179154406402539 45.951340343027638 16.841169643218354 50.794165124694764 49.644268176889412 23.270506620202578 84.479660715995891 43.615684763281465 18.515979218347145 8.2907909935487414 53.10469676633133 20.093436160276166 32.817637388532837 56.041550562491757 15.760915144574383 89.796989571087281 57.174555759041709 18.394308923503957 29.043690268533414 67.576100279836609 23.837139949976869 59.05300352861353 67.215769694047111 22.529149881680993 83.307329017673155 62.573234716412919 17.397060884508146 12.592862050772705 74.756960726417915 21.778298686863831 18.993928895793758 72.752107050719289 21.167201820374135 31.810365964537709 75.579349762629263 22.798078675085243 48.064280523585552 70.994291854254456 22.148333195315459 59.311194952169352 72.143157163244283 21.350430965692411 92.082672380486954 77.786191775741642 18.314916134929522 49.174164287225906 89.110989989619114 19.384344634835355 9.8578841723021178 6.5432549416945589 21.831486544596352 40.623012768222658 3.5070018738100965 21.221755184415873 66.632564687517188 4.4462544562523405 19.130389240212303 80.162462683994761 7.3240582742353828 16.94211213908088 9.7389344921646597 16.259408543477583 20.471841865523658 32.032413901441856 12.859304681641262 21.021451268829505 61.195320689017024 11.753160846838048 20.348346579334258 79.734000647482432 15.482783207309629 17.301428676692289 87.3726634219408 17.159499585231231 21.300761154318128 29.320866682888248 24.325822641041615 20.094680465305078 38.215522364196062 28.709582502926224 20.946694887619095 50.835220917471794 26.27326930584621 19.714994981632309 73.948381893352618 26.358218776509084 20.444232050132872 89.816320749075473 27.886259342121047 21.053846406590864 10.74706546433303 37.463190014214312 20.006910788808757 19.429036046474423 36.791970838944508 21.838058495868829 28.194662398910054 35.461465732182099 22.253588406570607 47.958296431054166 34.19340143482944 19.499230649192931 58.589531928693631 38.151331177927311 21.061465438179081 72.617975738927029 36.795816158334027 20.725729260501847 77.234827761714158 37.451296934257464 18.773785508823838 91.099842336096842 36.864265274544607 20.133194833702333 9.7545978872920251 45.116789649742501 20.381443288620822 21.454407786213519 46.061955172087721 17.669079384480916 33.172757138835145 43.099536323182519 19.111183997900429 39.940520023126453 46.31991573301358 21.051296402676677 52.173806124925434 46.354763224787924 18.612293214900234 58.986643926886067 45.396211775997024 19.370865963454705 71.039543332043408 47.448716696276762 18.672146411536264 80.293649664939267 49.621112051710853 20.930717055754105 91.524161524531607 43.763055996832925 19.867690036386254 11.81759716799877 55.399226447616648 21.405580002931099 19.826508193467301 55.848774038540746 20.344931185816016 31.73340953921209 53.965438703549992 20.405203439112668 59.923910806523459 54.576497877800044 17.752159924460113 90.073857374469839 59.716083745087261 22.014239548680962 30.341972598605452 62.415095653171839 18.24624396685487 41.20555277927452 67.662143180594768 17.585617553562486 57.255102496801442 66.307792573606946 20.124529855763008 77.12924243382767 66.973839351874929 20.662985296987863 7.3747495346458853 75.830633745347086 21.209848724231488 20.4132278595009 76.832618382263064 21.377526808102008 27.895579921564263 76.325670949421621 19.714874110891138 49.796720064555963 79.841202494217072 19.997622759839306 60.079092751124314 76.446709496166676 17.852811447153073 67.448972799522963 77.543556804100575 17.922462235540227 90.031902425106125 73.240927521001254 22.048099000448936 9.0663519415603115 85.84049800005873 21.125685820959255 18.718720617551124 83.077960537253361 20.947128825257181 51.990565719758536 84.657991124321399 17.50608774482949 70.04747767634278 86.25855183382231 22.256957253793168 80.595187691801712 85.645474173692534 17.69460374313023 90.819308518263711 90.173537978338786 20.934755384407634 40.32205726911662 10.127337827563698 22.190929335390937 72.749738871550193 7.245088296001156 18.844313511965904 76.962126679127692 3.4241574338846852 23.394629616549995 5.48492482829921 15.489457924854372 19.822441762901995 29.03666788720227 15.248740318940875 16.961212259531997 56.621136298858339 17.644558599419533 19.996666917765836 77.299655282354635 17.462505329666516 23.035122631976162 91.403237441145691 14.512053760942356 16.697840348868343 30.642035954422425 26.451337988860519 22.811992800437078 66.612946568606631 27.711649432350463 20.80814106538368 91.78302370066794 24.934307103685999 15.343160589387564 12.81884892513855 36.557485983086885 20.836050860364594 22.029387888054149 33.026949168497211 17.339874854020856 31.07774329143227 33.50224114908125 21.844762954217217 48.565984022575613 35.878377146412504 24.206055398367109 62.359119781214865 32.78891395605423 18.726440046606076 69.539943348603785 34.670711993161966 17.999439207629354 12.340254210694773 50.102840746885022 19.028976762863817 18.632025493920537 47.588047769408398 23.536109768832009 29.585576209337301 48.451894256336104 18.180137646490014 38.084123237360238 45.862342803783811 20.598379197128068 47.825711294323071 46.497882781141989 20.83111528263461 79.05062833484611 42.4760780495182 19.602704312309722 9.1139838522803505 55.379707249881818 17.989899087778042 29.343768979731482 57.9210459648842 18.280348278901123 87.750140561292156 53.565614145568432 16.781813357389506 32.63127441072632 66.933466241605331 20.458859620470339 60.658258269315198 63.360832143261788 22.873848674830086 82.672819377348844 63.166303271343317 20.594719466295608 13.019813619708632 76.702307857646176 15.934039956956738 22.260517325251815 71.269756139430257 18.683222917746612 29.731931925061271 72.456194368660533 19.262321456937226 49.271206331419123 73.124375083530893 19.280440665949449 58.20694250846114 76.589387141729802 21.979760974528176 89.206332575441749 79.337168175022825 16.881406980240833 45.549241755933316 86.156673419866294 22.005141146370327 42.230375504179911 7.2925278179826503 17.212822122198872 69.727146597575356 5.7702165553158684 22.372285873934175 13.780008420625638 12.212438323532865 17.955317030478646 29.334959147050888 17.876317887472538 20.629246816173552 60.2504095642254 17.892841291946255 19.16995784560407 83.81141568880409 16.050498935849568 22.291056118797606 30.863287438935743 24.978404150670347 16.957985737623822 5.7325966276890092 33.531012041199936 19.067413554582636 20.833140989393041 38.248997559949274 20.868625100706435 28.525359805471616 37.639980105119861 16.9034169108198 81.033933439841832 32.660864541499926 19.941262523382481 7.8122105906732182 45.59194809427737 20.45155061090459 17.862433349156532 45.473531076221477 18.272972511301937 29.482691481951765 45.506460840148883 23.555071976137526 42.572815107843049 46.24431403912439 17.621196798674415 50.111452516710678 41.241282083062181 18.693004467750413 60.960919587831178 46.883802064750888 18.827120639498329 69.838632098075323 43.887133686468843 20.428631675872122 77.705187054836784 46.236665907315157 21.485871317050023 88.089337472222752 47.27385884047623 22.192023290863208 27.255151371754156 56.338910685237217 22.678325522396634 88.075450562793904 53.950969641454719 21.300107607131892 61.621065058023241 66.489212858109255 17.548948133855262 77.950362293618198 71.294426600317891 20.202329208995994 18.593581217769383 78.762749073377947 20.296009206353837 31.545246836137053 79.049128436232934 18.784120799409784 8.836418905942022 81.699399017412588 20.399513136215525 18.73558744805365 88.506847028792379 20.500254432902846 82.79492102218515 84.406703895528054 21.77398351891647 88.175806288714071 84.238894489986265 19.678376934703184 36.417929540918941 6.3952691801270429 20.795651821316117 82.752281409004127 6.4038052728970394 22.091435848883844 32.315966083471345 16.22250243394679 17.838206553654395 78.790744487336383 17.540575188542725 20.040222944256147 33.482340708290067 23.799643911700109 23.724401640485656 68.6200883766668 22.457442995694194 19.53804201624347 90.19634292686159 22.977694832133512 21.415594635118271 16.871009039175181 35.230119770043672 19.337100134711864 34.261097190372155 35.26710450761243 21.346313011328672 51.561417116948299 37.521132012010703 21.603645095251295 61.707072370207129 35.252443900562 22.591719721286974 17.587722768651741 40.957244105044417 22.463793783749622 38.868374619328272 46.639453521296915 14.981171102131963 49.041611086921307 50.175688672628752 22.448420860444262 83.934272604970559 42.259030854533179 19.891377478937688 6.9586563944583704 52.720683087755141 21.545203806829157 34.305610317855859 57.382930703599534 15.888642485613275 27.748476216569227 66.066143726947658 23.568569357790143 81.480925992189938 61.846306832405261 17.80388545967925 11.810390239675165 74.444568470005308 19.956259351949114 17.396100866941349 73.88658309758263 21.602618958659033 29.907741372408999 75.769185632418612 23.40935635255568 49.371473366908589 72.160351294206308 23.128756903652587 48.504552448405