<?xml version="1.0" ?>
<VTKFile byte_order="LittleEndian" type="UnstructuredGrid" version="0.1">
<UnstructuredGrid>
<Piece NumberOfCells="0" NumberOfPoints="366">
<Points>
<DataArray NumberOfComponents="3" format="ascii" type="Float32">7.9746434261892549 3.130253047072113 20.359632033317919 20.0 7.3107966885271143 20.0 30.0 7.3107966885271143 20.0 40.39586560830034 1.7854481003599543 19.040554351408314 50.0 7.3107966885271143 20.0 59.263171193589535 6.2929819631762998 19.633708965550479 69.03038397871596 1.8994690350851264 18.665247550095195 81.307848855875022 2.8152520049899481 18.404645657012505 90.0 7.3107966885271143 20.0 12.422339641354045 14.437760334358561 19.771579306238429 20.0 17.310796688527304 20.0 30.685793054247846 11.357078526462439 22.614935263562003 40.0 17.310796688527304 20.0 50.0 17.310796688527304 20.0 61.822421695147483 11.404422158796486 20.215598607671556 70.0 17.310796688527304 20.0 81.897690482709081 10.513710014414402 17.887782789663493 88.858482969847188 13.884011224396577 18.508880695810443 10.0 27.310796688527304 20.0 20.0 27.310796688527304 20.0 26.948355168100843 22.724574095716971 18.227678117340297 39.741248074937474 23.15329905993606 22.040930970962624 50.334513980529479 25.979102098610646 18.122718323797471 60.0 27.310796688527304 20.0 71.603435008115198 22.287483727770276 19.559811802790961 79.864030398172588 27.085581296221896 20.090780499054439 89.923122775089539 23.236273040921404 23.821574515296685 10.741889156702969 33.013411218326489 17.224273238508179 20.520000768574093 31.453334712509729 22.615833486471676 28.228068306882502 34.559246133685292 20.401343640522654 40.0 37.310796688527304 20.0 50.631563514738403 32.132542445984932 19.592140641551325 57.102821033311109 32.931249339773295 19.383697756807372 70.707814797881397 34.402869410103214 19.177579742621678 79.457643298066969 32.772365195184449 19.669545097078696 88.952380709940613 31.442199860035931 20.604222324908953 11.525303643737004 39.060396495474166 19.077179186020739 22.646306000246774 45.739301054182349 16.449640772629522 30.236144276130023 40.403029959537839 18.669867040195452 40.872733266837891 42.006724004618661 22.912258661060221 50.186413338141328 42.983252421952088 17.267933646323677 59.408201581494708 40.032297330973449 20.020134219226964 71.445818700890129 41.468842545307439 17.520487310142713 80.25130873955699 44.822321020366594 19.301969401886002 88.861960105565402 39.904134003789956 18.68256248564267 10.504279667246392 54.754728827142863 20.410382920872934 22.201035845371429 52.886614928607131 22.081419770885883 29.908899125579058 50.920562216600047 21.85396786743943 40.0 57.310796688527304 20.0 50.0 57.310796688527304 20.0 59.864527561282372 53.533366106927751 19.620653096504164 70.0 57.310796688527304 20.0 79.928024260946316 57.144459250372584 20.225468893473032 92.190603180183786 54.689174052288287 21.765758554301875 10.0 67.310796688527304 20.0 20.033631783547548 66.83168445485471 19.79108621785598 30.009626842500158 61.849993341322403 19.260116501313693 41.385689598531137 65.132119498654632 19.956810600290133 50.02376770298828 66.871613021742945 20.176121957932104 59.268864858787708 61.428896807279386 19.250719471138989 70.0 67.310796688527304 20.0 79.33101516496238 62.064815149846858 19.780915328089122 90.0 67.310796688527304 20.0 8.2932640791989609 71.536426529711648 18.746397943059392 21.226111339536555 73.413141574876818 18.415168083656376 27.698492369297224 75.043001188485789 17.525926090165004 40.0 77.310796688527304 20.0 50.541814959912706 74.768435928508836 20.734453485782073 59.430262582085923 76.406317448053898 18.8773115899983 68.773553151686386 73.380253248520745 19.451811277653583 80.0 77.310796688527304 20.0 91.519752353315084 72.021371138473299 20.374809997872998 11.584603160948287 84.23002674184464 20.355871780402385 20.602342172077375 80.528072054594304 19.376122784419646 30.0 87.310796688527304 20.0 40.0 87.310796688527304 20.0 52.529225575891445 81.774714575366886 20.442752395239523 60.0 87.310796688527304 20.0 71.053814671827041 82.282481266612308 20.307224462264742 77.869917507478903 83.602978880017162 17.533453366255124 90.725928145255651 85.834590225145604 20.063893312885988 10.381897896535209 7.2888840374756914 18.046461167264795 39.224528976312897 5.3199607969774139 22.116124630043764 70.72910108418337 4.7863022060977247 20.964974589977661 77.585871210651447 1.899676733347627 20.329734356511089 7.0128203327165268 14.762584398654688 19.493130240204152 27.098455108993598 13.717813013424621 15.767341957583735 57.570610185630244 17.611150805918502 19.421433221259335 76.479740139970872 12.470094575203953 21.977954774209763 92.91097299445272 12.389878662655095 18.563414307700285 28.768489050132018 25.964812776074101 21.895113782779486 41.765574465690094 25.916926768119403 19.122346130898091 49.543411004580449 23.498362823977285 20.422306961717933 66.515266450370973 22.836637303154351 22.297853926200769 89.935060824571664 20.676429207887772 16.241862287549669 12.901634730667153 32.508653572683507 23.054501691376622 20.028991705061522 30.476289273991803 18.750540863854138 31.701275987303259 30.722073329984557 18.938399570616141 49.455966425243794 35.022003329828337 22.905109576867932 60.953659378001809 31.756931412034895 20.000222836007282 67.243031964669015 30.577800812289233 18.586847290117539 81.400574036189639 37.836856442123505 19.746102187927075 91.682609066385268 37.188871170313369 17.934699502749854 13.830037883751658 44.598881413100024 20.223705382996148 20.392713759148339 43.069717616840883 23.891757027678615 29.006920143408731 46.758865032835388 20.799354067905096 35.668174421864215 43.918154194449428 19.680052661784785 49.143363883872937 42.422838745478096 23.576031426639542 59.009361842624116 48.35076409042339 20.798979587497396 68.611589320264613 47.981091349023082 20.857117772956769 81.081821257433916 40.745931715096198 21.185300441454451 90.279303893290532 48.802902268148678 19.623717536100138 10.281990317815149 50.711137922332533 15.461749258224772 19.447608375622718 56.164247827395833 17.96510504711885 31.965405723709321 55.225055536270361 19.74094871887279 60.467724904302813 58.739776921474764 19.877503015972213 90.094090352814504 50.087447053439007 17.013995768099761 30.782862145268936 65.612213999419524 20.289402346304634 38.862013734318438 63.683153138313394 19.930809924977059 62.54605824677666 62.548333858316504 22.29496312912001 80.474872042468391 60.129219513502093 23.092527779437354 12.350865686959237 74.106220682729784 18.696545316087722 23.597161657850322 70.477595369971098 19.731726359064879 30.230698949881376 69.292297290613874 21.70394264125731 47.574265312542188 72.54043115529204 19.246076035716989 59.2921806914581 71.90609173274045 20.582676218870215 70.786044080004359 76.207920022372647 21.896376327497244 89.222228885762078 75.053652195626881 19.167511412586144 9.8750266289210469 88.786742476872149 19.478903389658392 21.271678011441356 88.4775187110925 20.65487899266574 47.447592490864153 82.394585141418943 20.761547553166629 70.861094235950432 87.998577479697303 18.630091304054016 79.738374920441672 87.058533011974873 22.039717196296774 90.952948390447318 83.138565984470503 19.204251022525231 11.711724860968525 4.5162744301531976 21.099327005040063 41.679534802560461 5.2737039990569503 18.921976870668779 67.050821771245012 3.8369119932788243 23.700344985853025 79.655356900814255 7.81813519148157 20.17576912931165 12.02064387071124 10.425501369923156 19.022678594960677 27.993001543224054 14.293773101251407 22.83420270059522 63.675053962488533 14.887365667389755 19.787046097885529 83.590896169821505 10.098289072177634 21.484518132879671 89.916196120666029 14.135352826014426 22.452342121056581 32.214576098341723 24.457521069338661 16.137305352518243 39.103907592505173 24.653739617375638 18.819540071673327 48.983968208782244 28.503665238602657 21.301808910262412 69.893338359438189 26.379657113429118 18.700416172215892 87.814363674195604 28.006807898352942 19.862584728258661 6.8090553663109734 32.493282751454068 17.741097839821439 20.784295893279896 36.577719992763214 18.025965030548623 28.171630084382716 31.465924932683251 16.978108815776604 50.275909041016774 34.825902631502252 16.519145065347665 59.980515428268063 35.875956900332504 17.856193870636975 71.61574928833079 36.970887745661564 22.773036158115488 80.383594410429438 30.471755801349278 22.806477389737982 87.367946227526332 35.994713921005008 21.841833427237802 4.4485261844690909 40.937004082916772 19.901782080359535 19.498022577698176 41.221985289000493 20.442249056190185 31.035287812065235 43.350254033846042 21.250698012070334 43.25616436514867 40.850688889072181 19.535656417966415 49.329091292319461 40.240107678663776 20.265595676299661 63.925736697068459 44.086611326313147 20.086492485438967 69.728815156569894 41.163610065730531 22.929793359749201 75.642805206734877 42.17556128541505 19.474926487564883 90.577798836283023 44.105196893446447 20.587070115596799 9.8684532295052403 58.385571394873296 22.266828076060296 18.628369212712887 57.351579835516127 20.903363017191239 25.689415329927797 51.17510271153423 21.133451420429751 59.61099472260095 54.245430265058502 22.597897759583315 90.952400677937788 51.005466859337162 21.26271109245058 28.143743399103922 65.900129130196987 18.87612035967549 39.250806563856457 67.229494733671004 22.055236560373263 60.527566402726556 64.920244413709469 15.251395454896569 79.144985037306213 66.630124639242624 18.965034114260863 8.6614262706512442 77.264500147389626 21.986542661701915 15.239065620603059 77.734195669690237 20.463164812088973 33.027911632374732 73.379159937118558 19.184467050816487 52.44075820576915 76.323672106023565 18.419267413157034 62.248274305012053 76.554262846316192 20.339430195275586 71.680975332128341 75.189233800335899 19.021481308835739 87.641651466250835 74.802064835347821 21.661951194807763 10.410612184510283 79.775067275201067 18.571553498465359 18.870167177296366 84.101517796633303 18.567823512843944 50.181994525711225 8
[...]
<PointData>
<DataArray Name="Points" NumberOfComponents="3" format="ascii" type="Float32">7.9746434261892549 3.130253047072113 20.359632033317919 20.0 7.3107966885271143 20.0 30.0 7.3107966885271143 20.0 40.39586560830034 1.7854481003599543 19.040554351408314 50.0 7.3107966885271143 20.0 59.263171193589535 6.2929819631762998 19.633708965550479 69.03038397871596 1.8994690350851264 18.665247550095195 81.307848855875022 2.8152520049899481 18.404645657012505 90.0 7.3107966885271143 20.0 12.422339641354045 14.437760334358561 19.771579306238429 20.0 17.310796688527304 20.0 30.685793054247846 11.357078526462439 22.614935263562003 40.0 17.310796688527304 20.0 50.0 17.310796688527304 20.0 61.822421695147483 11.404422158796486 20.215598607671556 70.0 17.310796688527304 20.0 81.897690482709081 10.513710014414402 17.887782789663493 88.858482969847188 13.884011224396577 18.508880695810443 10.0 27.310796688527304 20.0 20.0 27.310796688527304 20.0 26.948355168100843 22.724574095716971 18.227678117340297 39.741248074937474 23.15329905993606 22.040930970962624 50.334513980529479 25.979102098610646 18.122718323797471 60.0 27.310796688527304 20.0 71.603435008115198 22.287483727770276 19.559811802790961 79.864030398172588 27.085581296221896 20.090780499054439 89.923122775089539 23.236273040921404 23.821574515296685 10.741889156702969 33.013411218326489 17.224273238508179 20.520000768574093 31.453334712509729 22.615833486471676 28.228068306882502 34.559246133685292 20.401343640522654 40.0 37.310796688527304 20.0 50.631563514738403 32.132542445984932 19.592140641551325 57.102821033311109 32.931249339773295 19.383697756807372 70.707814797881397 34.402869410103214 19.177579742621678 79.457643298066969 32.772365195184449 19.669545097078696 88.952380709940613 31.442199860035931 20.604222324908953 11.525303643737004 39.060396495474166 19.077179186020739 22.646306000246774 45.739301054182349 16.449640772629522 30.236144276130023 40.403029959537839 18.669867040195452 40.872733266837891 42.006724004618661 22.912258661060221 50.186413338141328 42.983252421952088 17.267933646323677 59.408201581494708 40.032297330973449 20.020134219226964 71.445818700890129 41.468842545307439 17.520487310142713 80.25130873955699 44.822321020366594 19.301969401886002 88.861960105565402 39.904134003789956 18.68256248564267 10.504279667246392 54.754728827142863 20.410382920872934 22.201035845371429 52.886614928607131 22.081419770885883 29.908899125579058 50.920562216600047 21.85396786743943 40.0 57.310796688527304 20.0 50.0 57.310796688527304 20.0 59.864527561282372 53.533366106927751 19.620653096504164 70.0 57.310796688527304 20.0 79.928024260946316 57.144459250372584 20.225468893473032 92.190603180183786 54.689174052288287 21.765758554301875 10.0 67.310796688527304 20.0 20.033631783547548 66.83168445485471 19.79108621785598 30.009626842500158 61.849993341322403 19.260116501313693 41.385689598531137 65.132119498654632 19.956810600290133 50.02376770298828 66.871613021742945 20.176121957932104 59.268864858787708 61.428896807279386 19.250719471138989 70.0 67.310796688527304 20.0 79.33101516496238 62.064815149846858 19.780915328089122 90.0 67.310796688527304 20.0 8.2932640791989609 71.536426529711648 18.746397943059392 21.226111339536555 73.413141574876818 18.415168083656376 27.698492369297224 75.043001188485789 17.525926090165004 40.0 77.310796688527304 20.0 50.541814959912706 74.768435928508836 20.734453485782073 59.430262582085923 76.406317448053898 18.8773115899983 68.773553151686386 73.380253248520745 19.451811277653583 80.0 77.310796688527304 20.0 91.519752353315084 72.021371138473299 20.374809997872998 11.584603160948287 84.23002674184464 20.355871780402385 20.602342172077375 80.528072054594304 19.376122784419646 30.0 87.310796688527304 20.0 40.0 87.310796688527304 20.0 52.529225575891445 81.774714575366886 20.442752395239523 60.0 87.310796688527304 20.0 71.053814671827041 82.282481266612308 20.307224462264742 77.869917507478903 83.602978880017162 17.533453366255124 90.725928145255651 85.834590225145604 20.063893312885988 10.381897896535209 7.2888840374756914 18.046461167264795 39.224528976312897 5.3199607969774139 22.116124630043764 70.72910108418337 4.7863022060977247 20.964974589977661 77.585871210651447 1.899676733347627 20.329734356511089 7.0128203327165268 14.762584398654688 19.493130240204152 27.098455108993598 13.717813013424621 15.767341957583735 57.570610185630244 17.611150805918502 19.421433221259335 76.479740139970872 12.470094575203953 21.977954774209763 92.91097299445272 12.389878662655095 18.563414307700285 28.768489050132018 25.964812776074101 21.895113782779486 41.765574465690094 25.916926768119403 19.122346130898091 49.543411004580449 23.498362823977285 20.422306961717933 66.515266450370973 22.836637303154351 22.297853926200769 89.935060824571664 20.676429207887772 16.241862287549669 12.901634730667153 32.508653572683507 23.054501691376622 20.028991705061522 30.476289273991803 18.750540863854138 31.701275987303259 30.722073329984557 18.938399570616141 49.455966425243794 35.022003329828337 22.905109576867932 60.953659378001809 31.756931412034895 20.000222836007282 67.243031964669015 30.577800812289233 18.586847290117539 81.400574036189639 37.836856442123505 19.746102187927075 91.682609066385268 37.188871170313369 17.934699502749854 13.830037883751658 44.598881413100024 20.223705382996148 20.392713759148339 43.069717616840883 23.891757027678615 29.006920143408731 46.758865032835388 20.799354067905096 35.668174421864215 43.918154194449428 19.680052661784785 49.143363883872937 42.422838745478096 23.576031426639542 59.009361842624116 48.35076409042339 20.798979587497396 68.611589320264613 47.981091349023082 20.857117772956769 81.081821257433916 40.745931715096198 21.185300441454451 90.279303893290532 48.802902268148678 19.623717536100138 10.281990317815149 50.711137922332533 15.461749258224772 19.447608375622718 56.164247827395833 17.96510504711885 31.965405723709321 55.225055536270361 19.74094871887279 60.467724904302813 58.739776921474764 19.877503015972213 90.094090352814504 50.087447053439007 17.013995768099761 30.782862145268936 65.612213999419524 20.289402346304634 38.862013734318438 63.683153138313394 19.930809924977059 62.54605824677666 62.548333858316504 22.29496312912001 80.474872042468391 60.129219513502093 23.092527779437354 12.350865686959237 74.106220682729784 18.696545316087722 23.597161657850322 70.477595369971098 19.731726359064879 30.230698949881376 69.292297290613874 21.70394264125731 47.574265312542188 72.54043115529204 19.246076035716989 59.2921806914581 71.90609173274045 20.582676218870215 70.786044080004359 76.207920022372647 21.896376327497244 89.222228885762078 75.053652195626881 19.167511412586144 9.8750266289210469 88.786742476872149 19.478903389658392 21.271678011441356 88.4775187110925 20.65487899266574 47.447592490864153 82.394585141418943 20.761547553166629 70.861094235950432 87.998577479697303 18.630091304054016 79.738374920441672 87.058533011974873 22.039717196296774 90.952948390447318 83.138565984470503 19.204251022525231 11.711724860968525 4.5162744301531976 21.099327005040063 41.679534802560461 5.2737039990569503 18.921976870668779 67.050821771245012 3.8369119932788243 23.700344985853025 79.655356900814255 7.81813519148157 20.17576912931165 12.02064387071124 10.425501369923156 19.022678594960677 27.993001543224054 14.293773101251407 22.83420270059522 63.675053962488533 14.887365667389755 19.787046097885529 83.590896169821505 10.098289072177634 21.484518132879671 89.916196120666029 14.135352826014426 22.452342121056581 32.214576098341723 24.457521069338661 16.137305352518243 39.103907592505173 24.653739617375638 18.819540071673327 48.983968208782244 28.503665238602657 21.301808910262412 69.893338359438189 26.379657113429118 18.700416172215892 87.814363674195604 28.006807898352942 19.862584728258661 6.8090553663109734 32.493282751454068 17.741097839821439 20.784295893279896 36.577719992763214 18.025965030548623 28.171630084382716 31.465924932683251 16.978108815776604 50.275909041016774 34.825902631502252 16.519145065347665 59.980515428268063 35.875956900332504 17.856193870636975 71.61574928833079 36.970887745661564 22.773036158115488 80.383594410429438 30.471755801349278 22.806477389737982 87.367946227526332 35.994713921005008 21.841833427237802 4.4485261844690909 40.937004082916772 19.901782080359535 19.498022577698176 41.221985289000493 20.442249056190185 31.035287812065235 43.350254033846042 21.250698012070334 43.25616436514867 40.850688889072181 19.535656417966415 49.329091292319461 40.240107678663776 20.265595676299661 63.925736697068459 44.086611326313147 20.086492485438967 69.728815156569894 41.163610065730531 22.929793359749201 75.642805206734877 42.17556128541505 19.474926487564883 90.577798836283023 44.105196893446447 20.587070115596799 9.8684532295052403 58.385571394873296 22.266828076060296 18.628369212712887 57.351579835516127 20.903363017191239 25.689415329927797 51.17510271153423 21.133451420429751 59.61099472260095 54.245430265058502 22.597897759583315 90.952400677937788 51.005466859337162 21.26271109245058 28.143743399103922 65.900129130196987 18.87612035967549 39.250806563856457 67.229494733671004 22.055236560373263 60.527566402726556 64.920244413709469 15.251395454896569 79.144985037306213 66.630124639242624 18.965034114260863 8.6614262706512442 77.264500147389626 21.986542661701915 15.239065620603059 77.734195669690237 20.463164812088973 33.027911632374732 73.379159937118558 19.184467050816487 52.44075820576915 76.323672106023565 18.419267413157034 62.248274305012053 76.554262846316192 20.339430195275586 71.680975332128341 75.189233800335899 19.021481308835739 87.641651466250835 74.802064835347821 21.661951194807763 10.410612184510283 79.775067275201067 18.571553498465359 18.870167177296366 84.101517796633303 18.567823512843944 50.181994525711225 85.011694503365618 21.206712766187881 67.629897312528058 84.749414058972121 20.02306177534577 80.53796005995369 82.184085485806534 21.09849756786009 87.365858505658451 83.496115591913181 21.43323722567931 35.721219510664589 5.2035811744534675 18.709804033448478 75.689652352912987 5.2173629469922354 17.557809400205691 80.739476575691711 1.8796037740586937 22.732050276148982 8.5543722865976601 16.738050252147108 22.383493778170433 31.336737521472688 15.163189745045461 19.396292738748173 58.112454420966486 14.449777849917661 21.196447743728424 77.951085928871677 16.169988126770374 17.903274563620382 92.405861517527569 16.317629320606812 20.406546137552159 31.005244254085145 19.165162176614505 23.8429506144271 67.798501577747331 22.084756753523749 18.038471994706981 92.257498448116564 20.753286224703814 19.49763909907011 9.2795452938792877 34.40222431421666 22.72399474366836 16.669490197836666 31.723370368804172 16.97332259750543 35.220373989338462 35.026924585065188 20.21296342669028 53.35379174212553 35.040875923559497 19.24803565047668 63.839610722269676 32.498897963684776 23.967178342198658 66.37633150796087 35.542875456831801 20.09559796770186 9.7437915914083018 46.848882110521807 20.265479529745434 17.237952041852697 40.661363424134009 23.834669155827019 26.338026562756834 46.239033421862565 19.625050217283473 39.039063316772939 42.301230937811482 17.783826609898185 51.663970372329331 46.16855601131212 23.678513730072865 84.737725252050964 41.094882098515349 17.827787400054458 8.9032803980813569 49.554590318132554 19.646096917911358 32.0791456591094 52.16384956534111 15.697523141185334 89.796989571087281 56.169246109893038 18.394308923503957 29.656139756097787 65.103501705257244 24.0963216371164 59.05300352861353 66.21046004489844 22.529149881680993 84.278588589309692 59.620108517151323 16.533952956592096 12.803339050379668 71.839404606756673 22.818879869540627 19.909853608011534 69.320471416177554 21.127619963786216 32.788295773312356 72.087159971711145 22.962338056199798 47.807168301434068 67.545973915357877 22.174643276303193 59.502204530023491 69.296471606485582 21.641916046943468 92.082672380486954 76.780882126592971 18.314916134929522 49.067688740014042 86.140197960113525 18.744944033311221 10.163361730459082 5.5983124477519981 22.070233780177194 40.588471791333802 2.8171028045996045 21.876059453876426 66.126922112089389 3.3792022508286772 19.219506063276363 80.035006697445112 6.4736393182657128 16.77936471208524 9.3862579562714057 12.202812902504846 21.438301540729782 32.656977741709404 11.265065992955201 20.379087687915302 61.539351770004387 7.5445469395564455 20.919271511471536 78.737991497461238 12.517726744307708 16.48458975155879 86.998353035712611 14.410871417588153 22.009434836686903 29.635438342763134 20.789300078926452 20.462551584660865 37.6492108114319 26.355949240259704 20.660108082266841 51.318783340629963 24.414562084288185 20.361737639890258 75.158606447250634 23.550816931773497 20.887661754867636 90.22844813641882 24.958764110987296 20.224397464097564 10.56292823986643 35.450878745304067 20.349570086681684 18.664850727994597 35.622702688423992 21.963226764249406 28.168044215111248 33.659836962778513 23.170988506093934 46.971839757807174 30.526533936667242 19.471825314976922 59.003690528846654 35.664974625081783 21.583233584197352 73.716102019425733 33.522518331348451 21.599437306229401 76.348825496105817 34.890862583228149 18.313907371494373 91.827895919813727 34.215509429644435 20.404111312861165 10.743469859452679 42.29008619910438 21.267737599204402 21.683244045340057 41.925393321176202 17.168247983760782 34.129996241364474 39.655368193595173 19.199633829856584 40.117963334050003 45.563027268335901 20.89606521927233 52.500739997435424 45.404308884039125 18.83344561251549 58.188362346873916 44.234638277841952 19.697353534181541 70.951427040949454 45.190339102550922 18.994862089680375 80.310759324021163 48.78970275226002 21.073604869578805 92.482537170224177 40.60568247032473 20.234967695535115 12.596998977353948 53.564755396381486 22.055176435091418 18.909349401482444 52.503157759926282 19.84211840149413 32.189359998823001 52.466394273038908 20.14196174040103 59.958903893187106 50.599038171391562 16.90419687825062 89.350589901925517 57.454916731473858 22.150798607639913 30.367057226871324 58.193153643476613 17.771954897039784 41.294352675882088 66.664836465439663 17.036153470939603 56.227496751003109 63.665354777458226 20.571742834118076 76.29851911567944 64.430218463343962 20.880279481411147 6.7991403950141835 73.09374107063654 22.114031430310089 20.964426591293876 75.37825127246748 22.16180309341868 27.928784850375113 74.771124494537048 20.481413950479045 49.748940267471873 79.025670079725188 19.941778943139806 60.394281047015163 74.177921666839012 17.355130436663231 67.250573655211582 76.68248631720715 17.721934385909549 89.542593501299308 69.358602724726921 22.607734653677177 8.1418931066582552 82.6107284390838 21.51289223219533 18.313629074465318 81.978887806161495 21.284989293964795 51.811898680439548 81.337004985223615 16.532031162391306 69.91308556278257 85.372776282008189 22.517335945928075 81.547229459943637 82.058417399889109 17.22996897420883 90.827523374138877 89.353244795426107 21.030466654124943 40.407024643447642 9.3067972410207194 22.236442815134009 72.719511320322411 4.781381468283497 17.575950454131348 76.552382441590922 1.8994690350851264 24.256494439400143 4.6753069200288815 11.525025783418219 19.830000822011073 29.64973548449781 13.830233133680398 17.338840147309309 55.447740668518811 14.160941380346317 19.825996473449074 77.37854741464696 16.635242732352204 23.136843190822791 91.02828326591289 13.301216144889336 16.233896427445689 31.352850533799579 23.201874069402052 23.193981528870196 66.622645613057799 26.87890839186387 20.660221596022659 91.990636684818355 24.067928303248038 15.21238694805732 13.530951968335023 35.428322043635454 20.549693708032773 22.463340334897616 31.92714652181575 17.036879762245377 30.870924945083544 30.147055076051164 22.8087689684411 47.832514258534125 33.861296180081396 25.045214123269758 62.857054282256712 28.752206014927342 18.170323587569083 69.42165324122756 32.867802818086574 17.091308135100221 12.268255284813257 47.790647633598034 18.399878836708599 18.486542211229914 46.763993072192967 23.54436551831278 29.851953171773971 44.784117846603316 17.354597648051399 38.439021290659177 44.481058942766069 20.802720471393094 47.37350874578658 43.700124150584045 20.101217604415965 78.286699868145249 38.811581537168799 19.076864335024329 8.0336045698141021 53.000008371411397 17.844860142245278 28.467698413218802 54.656774955517278 17.790590829199846 87.381555903498722 52.632559345655721 16.736326893120978 33.743649093086901 62.945679930188867 20.573080980989943 59.89293778726735 61.584320004390996 23.108530828756756 83.478372468477119 59.907414189027712 20.460421755874304 13.301764977796671 73.44297475885277 14.868259188554955 21.768450800609866 68.854366856228907 18.172038667074364 29.645235766377347 71.571297388819801 18.938081893112482 49.911226895528124 69.396693718219396 18.923849954503716 57.586257633250185 74.870524470429984 22.547817960771855 89.352785104432442 76.783673585229238 15.591315649643215 45.267577034177897 85.251438349154 22.186691813257212 42.588471181510066 6.7221640392316377 16.560765487795596 70.269582305903128 1.7875930876950237 23.139277267661214 14.558956235948067 10.759309092683194 17.454455729619372 29.018652837979982 17.153326817781579 20.544876676178287 59.671347666790751 14.326034346684802 18.611946894029074 83.236207076453354 13.735734212291465 23.109790963316652 30.548521435196193 20.848032307470731 16.572398996061757 5.0788698171439401 29.410316875737028 19.611730698843825 21.647017090530657 35.175040491267914 21.671256502460405 28.673306146760872 35.47155035227199 16.58493808362303 81.415871543681135 29.264895902652256 19.05468925697447 7.0994208149097622 43.81939387934969 20.705754466049083 17.169438174092821 42.570223358378939 17.479499163648992 28.969560745871838 41.995875660880962 24.396117117003985 42.636725747156071 43.846750818942915 16.958868812919899 50.292163336180622 37.285275211711983 17.899513162990537 60.582028142296529 43.969142346447114 17.89605371348215 69.767024894921519 42.77572519095996 20.014690717703889 78.195009548819257 43.252989299223898 22.360258869411432 87.211279740527957 44.097745619470942 22.746952886884255 27.671547030092693 53.924468501767642 23.257792526152432 86.951310210456256 50.479346225324313 21.333454036241914 62.720940546762549 63.016710448625098 18.002204397191026 77.824119450649931 70.451568624215057 20.333081491400918 18.764195258852098 75.930785313645643 20.282289010656374 31.150453957109733 76.847337941480916 18.517430960416135 8.4355286125654416 79.887587575844108 20.798944702325773 18.720106695781102 87.650437984762206 20.722542622406401 83.373991601757439 83.210815441998363 22.055605826275556 88.496446856498295 82.410779858114765 18.956609720233065 36.523228353462727 2.4130564638302778 21.462736839683494 83.882529227074997 4.0854402035110589 21.965666957084231 32.913913509829769 14.398393753856487 17.02476824808241 78.998692959667395 16.238510412360991 20.708772745447565 34.675256023007627 20.737919244575565 24.056804619500433 68.781963146524092 20.365308201957678 20.149472927251683 89.542117119125635 19.43366551354497 22.121569671231075 16.900795160945147 34.297357974591336 19.706705421179876 33.813617082877826 33.134493689873118 21.874993986943991 51.972452312198946 36.424874147440022 21.852610562424285 61.331534373697892 34.267691965921479 22.644264489138159 17.539995364689176 38.533666043944422 21.941439565603137 38.72978386865649 43.766545457476184 14.074767152863103 48.171805839286741 47.227472180145654 22.040413750573975 84.220217247658681 38.243588269303196 20.582476604487606 6.0786391911450224 49.343348105603212 22.460188531937806 35.044102047279296 54.836703042689791 15.952034489002324 27.100898414498541 62.098713368041153 23.431607740342621 80.685767360147423 58.452639437967832 17.742798386268579 12.006186592767863 70.147537839141876 19.27909330758316 16.607344904132784 71.335261807932838