<?xml version="1.0" ?>
<VTKFile byte_order="LittleEndian" type="UnstructuredGrid" version="0.1">
<UnstructuredGrid>
<Piece NumberOfCells="0" NumberOfPoints="593">
<Points>
<DataArray NumberOfComponents="3" format="ascii" type="Float32">8.6166621250255648 1.9770617719262045 20.269253512956421 20.0 6.4814162279794019 20.0 30.0 6.4814162279794019 20.0 39.519572327601821 1.4957977244936098 18.175016276288307 50.0 6.4814162279794019 20.0 59.027762985960258 5.396126785686282 19.496399644141871 68.41249872382123 1.2497114888872047 17.552352125331517 81.260566333327489 2.4739751565757597 18.916909859318597 90.0 6.4814162279794019 20.0 13.016337060805682 11.511392553965003 19.596951939952213 20.0 16.481416227979651 20.0 30.253473426485293 7.9264422708509166 22.501965032638143 40.0 16.481416227979651 20.0 50.0 16.481416227979651 20.0 61.869197952180329 8.0186175190328726 20.848108605637652 70.0 16.481416227979651 20.0 82.357563818726859 7.4800517564458993 17.165978593574962 89.114369301847333 11.185258715967143 18.770410416956956 10.0 26.481416227979651 20.0 19.926438064611641 25.869700775482269 20.420079243502094 26.819733503531307 20.259349943560064 18.478082733065829 39.838032757471112 19.980591904941072 22.728490411214555 50.040881008939962 22.879486779297736 18.065293483574298 59.961364496082169 26.388542839390873 19.992979329440452 72.325347142315508 19.615211045592233 19.39537890070989 79.424015624473441 25.911207184917728 20.391434551928796 89.31229000076209 20.364742863003872 23.691311441699458 11.557491193504609 29.599474559118097 17.109453334395464 20.802125105515696 28.745608277727449 22.45219050757283 28.477323927718793 31.056455096729014 20.327774779891008 40.0 36.481416227979651 20.0 50.418495469189644 28.773504753158228 19.332100025587682 57.50557910404882 29.62565724876654 18.901156900287447 70.068667725965284 32.245305366699235 19.632616653902957 80.143151283178781 29.969662306248843 19.234313686219043 88.872537333684193 29.519357218397008 21.411460800947864 11.474680252088723 35.886664768839275 18.852713741128042 22.884948799241435 43.787443406551098 16.178253396556254 30.151541055537425 36.871560735182484 18.607952270368706 41.20448567611146 38.949502376267603 23.352765268610238 50.710628287643182 39.916752333207832 17.455955862201908 59.37266490406568 37.009505342410101 20.57910920598534 70.859132787871403 38.569353987412249 17.440945567516696 80.766520234394989 42.285317156944188 19.554913705717475 89.31452973717623 36.997287595070055 18.300366609417161 10.801974608996296 52.661184556323917 20.806175929956432 21.849303877278544 50.817597027560339 22.117013512963521 29.944885351751623 48.747662849469798 21.478011162595049 40.0 56.481416227979651 20.0 50.0 56.481416227979651 20.0 59.341470079221189 51.201448709833016 19.736847612744455 70.0 56.481416227979651 20.0 79.840078928514828 56.19598184698458 20.523703804634053 93.350471715254272 52.575033110012086 21.92007144348413 9.6550030557596784 66.261253515793271 20.130622912291248 20.006331006208701 65.24336267718185 19.107693151339664 30.109252358484827 58.939727512609771 19.741266745735871 41.168656915008476 62.48617142939959 20.388528614670577 50.26541136746976 65.166587251305415 20.675143103061181 59.087821214404421 58.368507775417307 19.111835294045388 70.0 66.481416227979651 20.0 79.577564868446046 59.690325922682135 19.05640156880041 90.040944212075019 66.419496328051196 19.802867478965432 8.3771605393657129 68.10016970748552 18.827103653667614 21.377373653166142 71.194978025858404 17.514566052567702 28.066847465987212 72.562144373414156 17.271798649237887 40.0 76.481416227979651 20.0 50.645911979408176 72.516152002173655 21.338553665931073 58.914523660669985 74.213541783232188 18.733212315661341 69.212008833709945 71.066950391433565 19.67740992259883 79.97624009773746 76.424564229666061 20.001508826704359 91.355904034284123 68.666126949541479 20.085022646265781 11.66044160050391 81.30783160377112 19.621375618907617 20.640690806023041 77.95537025394465 19.894360079433589 30.0 86.481416227979651 20.0 40.0 86.481416227979651 20.0 52.169023815000912 79.401080782075411 20.978664693686689 60.0 86.481416227979651 20.0 71.535325415410796 79.131364823142434 20.401893545063089 77.360494999559478 80.384920593514323 17.628936370947159 90.136608278875514 84.402547425690784 20.24918602058376 9.9923805032452453 6.0774274514448479 17.850861077790515 38.882049059638526 4.3213945031415575 22.489873939834631 71.322961005457927 3.5570517068454928 20.347572225953908 77.788778347709226 1.2044366941594247 20.004466987098095 7.2186022319070418 12.638605576724563 18.848502388014261 27.406730137946393 10.96740389487371 16.273202015685914 57.883589893295856 15.222372963694111 18.995328723773316 77.089360852931819 9.9669671776737534 21.817064325690772 92.548788077542426 9.6711512528359407 18.041184433497229 28.331742941616284 22.974535577228053 21.25027614519573 41.765574465690094 25.087546307571749 19.122346130898091 49.493625554515653 22.575938794087598 20.612708338381626 65.880645874348318 19.813872935807854 22.596668230920301 89.344691512400161 18.278797267480858 16.038240446680472 12.509234381694991 29.393089481701885 22.722337547371676 20.077398705371234 27.498992961402056 18.365063214146307 31.590741872654977 27.287365458346542 18.875156918791447 50.021385183265402 32.655672248899421 22.309642502476855 61.804364815013088 28.874920340419354 19.928437900399338 67.829783095681933 27.657736202529815 18.459964518020801 81.420758417564684 36.31689929967817 19.188908390027457 91.658095003405023 36.226659880235957 17.585776024093793 14.609263080206247 42.302018909621474 20.259797516585785 20.118235581115844 40.646705021810043 24.700441292301775 29.428666781513904 43.847908182085632 20.764784378808784 36.044999609721962 40.739012425599618 19.645484242815208 49.037466161433144 40.661767146425873 24.793739994419575 59.009361842624116 47.521383629875736 20.798979587497396 68.611589320264613 47.151710888475428 20.857117772956769 81.774609971203446 38.653121653536665 22.235979529657239 89.864719935966406 47.044424819985551 19.474722492206006 10.054438867235286 47.692802895016037 14.736724491304502 19.447608375622718 55.334867366848179 17.96510504711885 32.490549505374979 52.963995778048158 19.533121687199497 61.037526870535331 57.13031364293942 20.217529683546793 90.562218068015966 48.007524216353744 16.407052931446131 31.177495206660282 63.469104287838903 20.23848643536925 38.523616411707856 62.737956825155187 19.927323518883163 63.197159382550367 60.102181700966 21.906450886083775 80.667052201240153 57.825932773673152 23.201154012315779 12.986293274285446 71.769108641228968 18.859239963261853 23.626507213777444 67.632103966597867 19.708749139239305 29.945526251848172 66.958179051813616 21.073086202241459 46.394178046791843 69.756653341579224 19.04897249189511 59.064383612845596 69.205249436640159 19.645409932826144 70.786044080004359 75.378539561824994 21.896376327497244 89.678054744908778 72.426303395841046 19.092031728459268 9.8750266289210469 87.957362016324495 19.478903389658392 21.271678011441356 87.648138250544847 20.65487899266574 47.376701610225766 79.959689880602568 20.169499253197909 70.861094235950432 87.169197019149649 18.630091304054016 79.738374920441672 86.229152551427219 22.039717196296774 91.061923753290557 81.376326770642748 18.774316630176177 11.711724860968525 3.6868939696054852 21.099327005040063 43.111699248698059 3.524388990666715 19.45420877487669 66.573468991154257 2.5902290145091595 23.118024255594275 79.655356900814255 6.9887547309338576 20.17576912931165 12.474141245838737 7.9369735171901823 19.68217995806766 28.094685743045265 12.035571030833202 23.372992726094918 64.28021276783052 12.214252821057906 20.304123268077536 83.725193215727614 6.8523029595823539 21.189343774811373 90.095890221107709 13.309681271315425 22.475856761435892 31.877543846445661 22.222703671995244 15.871599362401934 39.532549222047791 23.702012920939321 18.286145239664663 48.982658938649337 27.531900767370733 21.48276434703773 69.893338359438189 25.550276652881465 18.700416172215892 87.363575800822417 26.361216750459732 19.577448580663845 6.9656568769104199 30.502989063545655 17.580730988414171 20.102762222390638 33.858605492213371 17.465949177672428 27.78278517359103 28.894013349763121 16.33103365861707 50.283304485963377 32.561470286157736 15.493978999621156 59.980515428268063 35.04657643978485 17.856193870636975 71.672845770613563 36.066618368394955 22.768292863352237 80.916830577137119 27.839409055688364 23.28048709975003 87.381459336380487 35.163917148647933 21.84712830003663 4.6601912729468769 37.495379045228482 19.708096195075761 19.32047646211462 38.666558003784701 20.112319563870241 31.444528050514457 40.205637502481657 20.764591771228723 43.261858360979154 37.602652900724038 19.069441775399795 48.954017824239486 36.923225686928902 20.666584339112426 64.498225111664851 41.850463118749936 20.106144091133331 70.105416665259071 38.23680341493862 22.413282506904569 75.452394029364484 39.036777121147509 18.834067554913094 91.33768619358284 41.408532002041987 20.267337302202453 9.8684532295052403 57.556190934325642 22.266828076060296 18.628369212712887 56.522199374968473 20.903363017191239 25.230006480434067 48.224041054036419 21.099040159041621 59.606852776461551 53.429664896445964 22.646142096261645 91.143337802944771 47.639051502278377 22.100898437252862 28.06662453801658 65.083501363562078 18.837214749857043 39.250806563856457 66.40011427312335 22.055236560373263 60.062233968566744 61.841010171390991 15.426711414310132 78.606110088531977 63.819619631625429 18.591752706142071 8.6614262706512442 76.435119686841972 21.986542661701915 15.186028361042492 74.698428861593882 20.805420720267481 33.966442707209211 70.484473130894344 19.068311424339498 52.44075820576915 75.494291645475911 18.419267413157034 62.251531611060486 75.725082135026113 20.341109730675093 71.680975332128341 74.359853339788245 19.021481308835739 87.528251172844463 73.982102762648523 21.844449488387777 11.
[...]
<PointData>
<DataArray Name="Points" NumberOfComponents="3" format="ascii" type="Float32">8.6166621250255648 1.9770617719262045 20.269253512956421 20.0 6.4814162279794019 20.0 30.0 6.4814162279794019 20.0 39.519572327601821 1.4957977244936098 18.175016276288307 50.0 6.4814162279794019 20.0 59.027762985960258 5.396126785686282 19.496399644141871 68.41249872382123 1.2497114888872047 17.552352125331517 81.260566333327489 2.4739751565757597 18.916909859318597 90.0 6.4814162279794019 20.0 13.016337060805682 11.511392553965003 19.596951939952213 20.0 16.481416227979651 20.0 30.253473426485293 7.9264422708509166 22.501965032638143 40.0 16.481416227979651 20.0 50.0 16.481416227979651 20.0 61.869197952180329 8.0186175190328726 20.848108605637652 70.0 16.481416227979651 20.0 82.357563818726859 7.4800517564458993 17.165978593574962 89.114369301847333 11.185258715967143 18.770410416956956 10.0 26.481416227979651 20.0 19.926438064611641 25.869700775482269 20.420079243502094 26.819733503531307 20.259349943560064 18.478082733065829 39.838032757471112 19.980591904941072 22.728490411214555 50.040881008939962 22.879486779297736 18.065293483574298 59.961364496082169 26.388542839390873 19.992979329440452 72.325347142315508 19.615211045592233 19.39537890070989 79.424015624473441 25.911207184917728 20.391434551928796 89.31229000076209 20.364742863003872 23.691311441699458 11.557491193504609 29.599474559118097 17.109453334395464 20.802125105515696 28.745608277727449 22.45219050757283 28.477323927718793 31.056455096729014 20.327774779891008 40.0 36.481416227979651 20.0 50.418495469189644 28.773504753158228 19.332100025587682 57.50557910404882 29.62565724876654 18.901156900287447 70.068667725965284 32.245305366699235 19.632616653902957 80.143151283178781 29.969662306248843 19.234313686219043 88.872537333684193 29.519357218397008 21.411460800947864 11.474680252088723 35.886664768839275 18.852713741128042 22.884948799241435 43.787443406551098 16.178253396556254 30.151541055537425 36.871560735182484 18.607952270368706 41.20448567611146 38.949502376267603 23.352765268610238 50.710628287643182 39.916752333207832 17.455955862201908 59.37266490406568 37.009505342410101 20.57910920598534 70.859132787871403 38.569353987412249 17.440945567516696 80.766520234394989 42.285317156944188 19.554913705717475 89.31452973717623 36.997287595070055 18.300366609417161 10.801974608996296 52.661184556323917 20.806175929956432 21.849303877278544 50.817597027560339 22.117013512963521 29.944885351751623 48.747662849469798 21.478011162595049 40.0 56.481416227979651 20.0 50.0 56.481416227979651 20.0 59.341470079221189 51.201448709833016 19.736847612744455 70.0 56.481416227979651 20.0 79.840078928514828 56.19598184698458 20.523703804634053 93.350471715254272 52.575033110012086 21.92007144348413 9.6550030557596784 66.261253515793271 20.130622912291248 20.006331006208701 65.24336267718185 19.107693151339664 30.109252358484827 58.939727512609771 19.741266745735871 41.168656915008476 62.48617142939959 20.388528614670577 50.26541136746976 65.166587251305415 20.675143103061181 59.087821214404421 58.368507775417307 19.111835294045388 70.0 66.481416227979651 20.0 79.577564868446046 59.690325922682135 19.05640156880041 90.040944212075019 66.419496328051196 19.802867478965432 8.3771605393657129 68.10016970748552 18.827103653667614 21.377373653166142 71.194978025858404 17.514566052567702 28.066847465987212 72.562144373414156 17.271798649237887 40.0 76.481416227979651 20.0 50.645911979408176 72.516152002173655 21.338553665931073 58.914523660669985 74.213541783232188 18.733212315661341 69.212008833709945 71.066950391433565 19.67740992259883 79.97624009773746 76.424564229666061 20.001508826704359 91.355904034284123 68.666126949541479 20.085022646265781 11.66044160050391 81.30783160377112 19.621375618907617 20.640690806023041 77.95537025394465 19.894360079433589 30.0 86.481416227979651 20.0 40.0 86.481416227979651 20.0 52.169023815000912 79.401080782075411 20.978664693686689 60.0 86.481416227979651 20.0 71.535325415410796 79.131364823142434 20.401893545063089 77.360494999559478 80.384920593514323 17.628936370947159 90.136608278875514 84.402547425690784 20.24918602058376 9.9923805032452453 6.0774274514448479 17.850861077790515 38.882049059638526 4.3213945031415575 22.489873939834631 71.322961005457927 3.5570517068454928 20.347572225953908 77.788778347709226 1.2044366941594247 20.004466987098095 7.2186022319070418 12.638605576724563 18.848502388014261 27.406730137946393 10.96740389487371 16.273202015685914 57.883589893295856 15.222372963694111 18.995328723773316 77.089360852931819 9.9669671776737534 21.817064325690772 92.548788077542426 9.6711512528359407 18.041184433497229 28.331742941616284 22.974535577228053 21.25027614519573 41.765574465690094 25.087546307571749 19.122346130898091 49.493625554515653 22.575938794087598 20.612708338381626 65.880645874348318 19.813872935807854 22.596668230920301 89.344691512400161 18.278797267480858 16.038240446680472 12.509234381694991 29.393089481701885 22.722337547371676 20.077398705371234 27.498992961402056 18.365063214146307 31.590741872654977 27.287365458346542 18.875156918791447 50.021385183265402 32.655672248899421 22.309642502476855 61.804364815013088 28.874920340419354 19.928437900399338 67.829783095681933 27.657736202529815 18.459964518020801 81.420758417564684 36.31689929967817 19.188908390027457 91.658095003405023 36.226659880235957 17.585776024093793 14.609263080206247 42.302018909621474 20.259797516585785 20.118235581115844 40.646705021810043 24.700441292301775 29.428666781513904 43.847908182085632 20.764784378808784 36.044999609721962 40.739012425599618 19.645484242815208 49.037466161433144 40.661767146425873 24.793739994419575 59.009361842624116 47.521383629875736 20.798979587497396 68.611589320264613 47.151710888475428 20.857117772956769 81.774609971203446 38.653121653536665 22.235979529657239 89.864719935966406 47.044424819985551 19.474722492206006 10.054438867235286 47.692802895016037 14.736724491304502 19.447608375622718 55.334867366848179 17.96510504711885 32.490549505374979 52.963995778048158 19.533121687199497 61.037526870535331 57.13031364293942 20.217529683546793 90.562218068015966 48.007524216353744 16.407052931446131 31.177495206660282 63.469104287838903 20.23848643536925 38.523616411707856 62.737956825155187 19.927323518883163 63.197159382550367 60.102181700966 21.906450886083775 80.667052201240153 57.825932773673152 23.201154012315779 12.986293274285446 71.769108641228968 18.859239963261853 23.626507213777444 67.632103966597867 19.708749139239305 29.945526251848172 66.958179051813616 21.073086202241459 46.394178046791843 69.756653341579224 19.04897249189511 59.064383612845596 69.205249436640159 19.645409932826144 70.786044080004359 75.378539561824994 21.896376327497244 89.678054744908778 72.426303395841046 19.092031728459268 9.8750266289210469 87.957362016324495 19.478903389658392 21.271678011441356 87.648138250544847 20.65487899266574 47.376701610225766 79.959689880602568 20.169499253197909 70.861094235950432 87.169197019149649 18.630091304054016 79.738374920441672 86.229152551427219 22.039717196296774 91.061923753290557 81.376326770642748 18.774316630176177 11.711724860968525 3.6868939696054852 21.099327005040063 43.111699248698059 3.524388990666715 19.45420877487669 66.573468991154257 2.5902290145091595 23.118024255594275 79.655356900814255 6.9887547309338576 20.17576912931165 12.474141245838737 7.9369735171901823 19.68217995806766 28.094685743045265 12.035571030833202 23.372992726094918 64.28021276783052 12.214252821057906 20.304123268077536 83.725193215727614 6.8523029595823539 21.189343774811373 90.095890221107709 13.309681271315425 22.475856761435892 31.877543846445661 22.222703671995244 15.871599362401934 39.532549222047791 23.702012920939321 18.286145239664663 48.982658938649337 27.531900767370733 21.48276434703773 69.893338359438189 25.550276652881465 18.700416172215892 87.363575800822417 26.361216750459732 19.577448580663845 6.9656568769104199 30.502989063545655 17.580730988414171 20.102762222390638 33.858605492213371 17.465949177672428 27.78278517359103 28.894013349763121 16.33103365861707 50.283304485963377 32.561470286157736 15.493978999621156 59.980515428268063 35.04657643978485 17.856193870636975 71.672845770613563 36.066618368394955 22.768292863352237 80.916830577137119 27.839409055688364 23.28048709975003 87.381459336380487 35.163917148647933 21.84712830003663 4.6601912729468769 37.495379045228482 19.708096195075761 19.32047646211462 38.666558003784701 20.112319563870241 31.444528050514457 40.205637502481657 20.764591771228723 43.261858360979154 37.602652900724038 19.069441775399795 48.954017824239486 36.923225686928902 20.666584339112426 64.498225111664851 41.850463118749936 20.106144091133331 70.105416665259071 38.23680341493862 22.413282506904569 75.452394029364484 39.036777121147509 18.834067554913094 91.33768619358284 41.408532002041987 20.267337302202453 9.8684532295052403 57.556190934325642 22.266828076060296 18.628369212712887 56.522199374968473 20.903363017191239 25.230006480434067 48.224041054036419 21.099040159041621 59.606852776461551 53.429664896445964 22.646142096261645 91.143337802944771 47.639051502278377 22.100898437252862 28.06662453801658 65.083501363562078 18.837214749857043 39.250806563856457 66.40011427312335 22.055236560373263 60.062233968566744 61.841010171390991 15.426711414310132 78.606110088531977 63.819619631625429 18.591752706142071 8.6614262706512442 76.435119686841972 21.986542661701915 15.186028361042492 74.698428861593882 20.805420720267481 33.966442707209211 70.484473130894344 19.068311424339498 52.44075820576915 75.494291645475911 18.419267413157034 62.251531611060486 75.725082135026113 20.341109730675093 71.680975332128341 74.359853339788245 19.021481308835739 87.528251172844463 73.982102762648523 21.844449488387777 11.076953928686272 76.751778590525731 17.926461886221226 18.742829778398022 82.116555916564295 18.268250409953669 50.416477657530734 84.1573646532662 21.563477829791211 67.629897312528058 83.920033598424467 20.02306177534577 80.346966241497682 79.792299297270347 21.827749683964882 87.431764716827232 81.129079401756059 21.206000305665214 35.443093569878208 3.2115403339154187 17.55051529797209 75.763676170248416 4.4031879210287883 17.558981326489931 80.23906631031916 1.3452776471331707 23.656045673676342 8.5543722865976601 15.908669791599447 22.383493778170433 30.771448046200597 13.004294277241476 19.868445353621201 58.215617705716717 13.359309400913718 21.48288138173778 78.199038203450613 13.210491922731205 18.177148672761223 92.405628134010541 15.120327622558817 20.45561090177268 31.277125169780874 16.359952139309705 24.697336394615625 67.758331550496294 19.139906030754119 18.179166653061028 92.66006243569322 18.699579573263943 18.92116385592297 8.9953315980857926 33.555441060002146 23.226921374787608 16.122047060573212 29.528206071364355 16.398049801391171 35.87220530070234 32.136879375113828 20.356611221796165 53.429656300647437 33.191935339160004 19.448819862813604 63.686796654836314 29.00492813543644 24.068034547826006 66.37633150796087 34.713494996284147 20.09559796770186 10.320514890040213 44.857682028943138 20.718606325582876 16.832848159663612 37.685653870530089 24.899559493716286 26.139339233019967 45.39858970181298 19.53059191333406 39.520497212932625 38.962151062317567 17.801789294766461 51.343187333085702 43.758178844565407 23.621321750223775 84.682651624773314 38.087147271108087 17.080501894337079 8.3301125395930491 47.914548392073094 19.665218835199738 32.426938850758908 48.961798687121465 15.898131758240345 89.796989571087281 55.339865649345384 18.394308923503957 29.994414813995274 61.768065019773402 24.255905981000286 59.05300352861353 65.381079584350786 22.529149881680993 85.014353219248335 57.394727091093138 16.162042123623444 11.820472341329085 68.690954033204775 22.893041798973186 20.383181692080282 66.355806122702063 21.446799493778624 32.797128336643254 69.395458945311091 23.778860594274636 47.908968505073148 65.158014662116372 22.685904837947877 59.558893431790501 67.646358249192545 22.222995717832394 92.082672380486954 75.951501666045317 18.314916134929522 48.982098391056319 83.221897519371581 17.769800210127844 10.163361730459082 4.7689319872042857 22.070233780177194 41.055340972067633 1.2772335971425239 21.867051847587305 65.857083520512447 2.6395571276307943 19.316784729265628 79.976113134318979 5.581371932410689 16.752790308101986 9.2929736558683249 9.850882303573373 21.395022846088072 32.884470147101823 10.132673504343533 20.368053937373944 61.454598822061932 4.2850444540179016 20.535672431853225 77.837984703738442 9.4172022474511916 16.002910629172771 86.614007637503505 11.907464087183666 22.82597875166168 29.452990965166617 18.028177756580828 20.798034814353382 36.82563542083426 24.169189998771614 21.473259863055631 51.448539327243076 23.448432944271616 20.658064174208587 75.675137816228656 21.327295362315304 21.545397173150491 90.602891269928804 21.625937172286388 19.991449782048154 10.757109418561621 32.678332390149855 19.730338954967198 18.629351690550727 34.79921743799008 21.966463128447998 28.162375473338571 32.78379684974815 23.542456555084875 46.369158504636957 27.679295713600734 19.94664723962066 58.088668677143239 33.145307956024659 21.492216800250063 73.537154438437256 30.963679248081213 21.562481867970455 76.586943172681373 31.851532770529445 18.017602128086114 92.610997625936804 31.952589974172334 19.936450091064877 11.212960126628428 39.750463229380877 22.082464850204815 21.731688405254825 39.52440287852852 16.435308948625696 33.934619694828271 37.012669888112157 19.791487687059295 40.130024775593242 44.741502585377489 20.896668252937239 52.500739997435424 44.574928423491471 18.83344561251549 58.135255091031446 43.414688765445497 19.738791459578152 71.545405502175171 42.486524781830148 19.003863401423697 80.310759324021163 47.960322291712366 21.073604869578805 93.214075741062842 38.244405426818446 20.782559236936397 12.936961625273055 52.62380873287141 22.31758265402248 19.099926589803744 50.231560101729677 19.724756812486309 32.197593393102423 50.230929738615885 20.275395806276734 59.43175727070011 47.988610294496915 16.478098246108317 88.675984842525736 54.893261322482971 21.617454765771821 29.680844883907092 55.026141931163785 16.998472445720903 41.294352675882088 65.835456004892009 17.036153470939603 56.269793399533548 61.193942435023821 20.321719036533246 75.971065994052665 61.13340194771046 20.565491648440574 6.2888436781086403 70.887914191984848 22.106517235965271 21.25038670365042 74.570085888531523 22.383462289249668 27.936019346166407 73.939432926480436 20.559367542873627 49.786870979888626 78.028578179865946 19.855617383458075 60.721502128006762 72.862552456333802 16.842098731714994 67.250573655211582 75.853105856659496 17.721934385909549 89.406425815068459 66.963707672860593 22.564769011485517 7.1263553342183759 80.83659663439181 22.334974050005229 18.281422724579571 81.085591699500142 21.467083733759388 52.135243927469652 78.84209769677534 15.837723263039452 69.91308556278257 84.543395821460535 22.517335945928075 81.880146807961083 78.480841741964994 17.062040220876312 90.827523374138877 88.523864334878454 21.030466654124943 40.407024643447642 8.477416780473007 22.236442815134009 73.415830309546948 1.4595910241184573 17.457874806506062 76.082008450367809 1.7579982737545155 23.906530726554333 4.5847990234017324 7.9911346391452813 20.241190596946673 29.529242870512189 12.926930061440579 17.101527174075361 55.760203791621784 10.950105099562164 20.306801196704935 77.37854741464696 15.805862271804536 23.136843190822791 91.109464095091312 12.476458939542523 16.140026362134385 32.237245858284751 20.399039811388068 23.883852342096013 66.582112104907438 25.914418986375296 20.795687397468601 91.990636684818355 23.238547842700385 15.21238694805732 13.619149757480438 34.60405210452808 20.554774101917538 22.463744317274816 31.09822806000653 17.036552356886833 31.397447860889123 27.246242758321195 22.867052868688013 47.672789854566822 32.965107667940529 25.25745963561716 62.664488563522333 25.577470856517881 17.547669950195651 69.138709898488372 31.820022116362772 16.597272380864233 12.065155159022778 44.860224052862776 18.583344070223461 18.486542211229914 45.934612611645314 23.54436551831278 29.511660922191776 41.411898114819088 17.565464819527019 38.456009968960387 43.650259405887915 20.81377960402218 46.997672217336145 41.808671173983427 20.079058505162262 78.182815916956329 36.243874339112018 18.458431334543473 8.071116794328983 51.028056878392093 17.555910441254333 28.153387452984468 52.226200301328525 17.504555607993769 87.381555903498722 51.803178885108068 16.736326893120978 33.919308307668274 60.226620183639206 21.228952339617411 59.679049244986153 60.712821337784035 23.171100366104906 82.994134499519618 56.950232927360162 20.379437533749403 12.761550560311553 70.639474373867017 14.551294209387581 21.600499060241141 67.618043432012769 18.016906975320659 29.462608253539969 70.732627515843845 19.015456553444302 49.861947188585248 66.652445236222562 18.371753033809902 57.203418034668218 72.16701307286371 23.401931108678923 89.40595808092057 74.336226091633662 14.562274344510765 45.267577034177897 84.422057888606346 22.186691813257212 42.640914871479374 6.0302290184304077 16.338082887699503 70.834580590439813 1.0638088526306455 24.748380182306491 14.627322007656295 9.9457337080477242 17.4128423378679 28.802944130148965 15.448120225544242 20.563665427295874 59.864084371071485 12.092660905618246 17.911705864888997 83.132512478770465 11.599331517189469 23.349606202876771 31.0851549575181 17.901169157253925 16.621296129348931 4.3396268021924946 26.138722748478596 19.548309853937244 21.343736827041653 32.204333386767388 22.038824465932866 28.443663407136956 32.64879122101798 16.664567484121577 81.623451823183984 26.10491539204509 18.695399452319982 6.9084349435485262 41.50879932978615 21.373581408938414 17.558744780634381 40.235297037471199 17.057187114007416 28.731153988660957 39.628574788941243 24.898332490184668 43.391312791050957 41.539987216164192 17.000967427961434 50.205607038500531 35.594032818514336 17.331108496056427 60.206953240481916 40.493982080122578 17.862096950923995 69.342702633754868 41.346981925873237 20.37052799447018 77.775223342544251 40.244915739327951 22.454851678840221 86.967699343302215 40.976351396030864 22.248071534332389 27.510049451781402 52.087136462767432 23.344305490312134 86.194868152964276 47.291785271212071 21.168755196344772 63.163382339990349 59.643261847650862 17.830664784365538 77.824119450649931 69.622188163667403 20.333081491400918 18.298451333058196 72.916871759717779 20.023250554367966 30.865091546674059 74.647061556568531 19.066873082642669 8.3455378732103345 78.161064036577073 20.751057930547955 18.720106695781102 86.821057524214552 20.722542622406401 83.377529436941671 82.382715785740146 22.056799780299635 88.593126480566369 81.528575489986778 18.746188373094594 34.964150904816634 1.5926042636946505 21.789067074940188 84.024398393625489 1.4997685561672258 22.004666605890311 32.985919183562032 13.545054391298191 16.911360952194389 79.032809961467407 15.416281437812124 20.79784437696507 35.486316055843901 18.052144445767254 24.554940687070182 68.713789760806279 19.211845606559415 20.55782825933878 89.140440959019841 16.572518443378463 21.562399365335338 16.900795160945147 33.467977514043682 19.706705421179876 33.496539886655121 32.042581070202587 22.249608810344867 51.995778407568558 35.609099450557508 21.842948552704264 61.793234293382376 33.314768419410086 22.883960932003173 17.194359357241524 36.93930008420088 21.595276151717989 38.859934802333584 41.70839819913693 13.84920681839216 48.448728444001866 45.206838797016239 21.926947456182059 84.784360803439284 35.295279443398194 21.262903387596008 5.8086196002877122 47.181447125385233 22.883986857354007 35.734576074234006 51.843266576309752 15.64347383875069 27.560937497904401 59.240679400590601 23.443297657827806 81.1