<?xml version="1.0" ?>
<VTKFile byte_order="LittleEndian" type="UnstructuredGrid" version="0.1">
<UnstructuredGrid>
<Piece NumberOfCells="0" NumberOfPoints="56">
<Points>
<DataArray NumberOfComponents="3" format="ascii" type="Float32">1.1305127257619492 1.1227738034451997 1.1299992462912389 2.9259706828007448 1.1439544046292218 1.0972015313930508 4.7192539218848353 1 0.92787454869451091 9.0 1 0.9497186108397524 1.2922989207570015 1.3591440402582045 2.9701469961632312 3.1378228993755357 1.1350062199275921 4.1892827581881216 6.2824873909005543 1 0.93629540509880793 9.0 1 3.691631156611999 3.6379845314767625 3.5890786498134224 7.2843308820399404 6.2789425138034511 1 7.5091970705138111 8.8121750231164988 3.3017793040344192 7.5557446131006394 1.3066431038186823 1.3294194400053663 8.6634129765401706 2.9016470109032961 1.3620969435024044 8.6851645550229808 8.6999999999999993 1.3671459101282875 8.6726201307942414 6.3834587754824392 1 9.0 1.1841793981789743 3.1235395715571257 1.1820401689686626 7.6547483667547249 2.7236683867751763 1.9720509067212924 1.3929538159452299 3.5191909693987142 4.670931584070189 5.3666220365138839 1 9.0 6.9927741519653974 2.8099319415492676 4.3131706663212741 7.0993393525867381 1 5.9193157719454659 1.3021250064646115 1.3326775036803937 6.759159590840123 1.4100210216456559 3.4364367581612911 8.8238019983164513 4.773857848169369 1.1622350260694596 3.8744036482062789 5.9899997959750548 1.1634617203293469 5.5191464329042894 9.0 1 5.1301033859025775 5.5021996011583711 3.0055696488293528 5.9554970694448537 7.6194244880071462 1 3.8443921356151876 7.4059049199416647 1 7.2761955656441994 9.0 2.5351838001511848 3.5531686599887355 3.0762346785145325 1.3540021579485271 2.5800066538865463 2.8660799670404722 1.3522696490256625 5.9682450808548575 4.0011799992887065 1.347534357703609 7.3043280409530302 2.9862306161029535 3.772391385733326 2.5600945095539784 1.2913627024126337 1.3060559678110579 4.7453044030641287 4.7789892405877543 1.147038238638487 2.3447382931474681 3.9249532384466264 3.1850144510048675 4.7332469633910534 8.8801847850110285 1.146778767869022 6.7694805525946258 5.367354511784626 3.1814683698148025 2.8832802934955879 6.3226025201363214 1.1672289822387629 2.4224542658580823 4.6075168291852915 1.1357084991034525 5.4048393974066453 4.1626499102633687 2.7423186624388189 0.98226900675424889 9.0 1 2.3321350253497348 7.6759590058459413 1 0.93883881394369817 7.6798823091056221 1 2.4423542724108986 5.2719152260457873 1 7.1192517980187109 7.4403694132187077 1 9.0 5.9970581971735193 2.6647461702758037 0.97978172974799138 4.3416711277332656 1 9.0 7.8318862597996173 1 5.0875300293521883 0.99297026049525994 3.4326582783575481 6.924836597373238 8.6481292302828496 2.6777348183878704 5.5464287155886414 5.7382001648913414 2.6441135698136247 8.1929944467064342 6.25424699178701 1 3.9663361130020052 7.0680808962993753 2.6181452840405601 6.7456568161186903 8.6729146370077839 4.1232235648112061 4.4485188055406102 </DataArray>
</Points>
<Cells>
<DataArray Name="connectivity" format="ascii" type="Int32">0</DataArray>
<DataArray Name="offsets" format="ascii" type="Int32">0</DataArray>
<DataArray Name="types" format="ascii" type="UInt8">1</DataArray>
</Cells>
<PointData>
<DataArray Name="Points" NumberOfComponents="3" format="ascii" type="Float32">1.1305127257619492 1.1227738034451997 1.1299992462912389 2.9259706828007448 1.1439544046292218 1.0972015313930508 4.7192539218848353 1 0.92787454869451091 9.0 1 0.9497186108397524 1.2922989207570015 1.3591440402582045 2.9701469961632312 3.1378228993755357 1.1350062199275921 4.1892827581881216 6.2824873909005543 1 0.93629540509880793 9.0 1 3.691631156611999 3.6379845314767625 3.5890786498134224 7.2843308820399404 6.2789425138034511 1 7.5091970705138111 8.8121750231164988 3.3017793040344192 7.5557446131006394 1.3066431038186823 1.3294194400053663 8.6634129765401706 2.9016470109032961 1.3620969435024044 8.6851645550229808 8.6999999999999993 1.3671459101282875 8.6726201307942414 6.3834587754824392 1 9.0 1.1841793981789743 3.1235395715571257 1.1820401689686626 7.6547483667547249 2.7236683867751763 1.9720509067212924 1.3929538159452299 3.5191909693987142 4.670931584070189 5.3666220365138839 1 9.0 6.9927741519653974 2.8099319415492676 4.3131706663212741 7.0993393525867381 1 5.9193157719454659 1.3021250064646115 1.3326775036803937 6.759159590840123 1.4100210216456559 3.4364367581612911 8.8238019983164513 4.773857848169369 1.1622350260694596 3.8744036482062789 5.9899997959750548 1.1634617203293469 5.5191464329042894 9.0 1 5.1301033859025775 5.5021996011583711 3.0055696488293528 5.9554970694448537 7.6194244880071462 1 3.8443921356151876 7.4059049199416647 1 7.2761955656441994 9.0 2.5351838001511848 3.5531686599887355 3.0762346785145325 1.3540021579485271 2.5800066538865463 2.8660799670404722 1.3522696490256625 5.9682450808548575 4.0011799992887065 1.347534357703609 7.3043280409530302 2.9862306161029535 3.772391385733326 2.5600945095539784 1.2913627024126337 1.3060559678110579 4.7453044030641287 4.7789892405877543 1.147038238638487 2.3447382931474681 3.9249532384466264 3.1850144510048675 4.7332469633910534 8.8801847850110285 1.146778767869022 6.7694805525946258 5.367354511784626 3.1814683698148025 2.8832802934955879 6.3226025201363214 1.1672289822387629 2.4224542658580823 4.6075168291852915 1.1357084991034525 5.4048393974066453 4.1626499102633687 2.7423186624388189 0.98226900675424889 9.0 1 2.3321350253497348 7.6759590058459413 1 0.93883881394369817 7.6798823091056221 1 2.4423542724108986 5.2719152260457873 1 7.1192517980187109 7.4403694132187077 1 9.0 5.9970581971735193 2.6647461702758037 0.97978172974799138 4.3416711277332656 1 9.0 7.8318862597996173 1 5.0875300293521883 0.99297026049525994 3.4326582783575481 6.924836597373238 8.6481292302828496 2.6777348183878704 5.5464287155886414 5.7382001648913414 2.6441135698136247 8.1929944467064342 6.25424699178701 1 3.9663361130020052 7.0680808962993753 2.6181452840405601 6.7456568161186903 8.6729146370077839 4.1232235648112061 4.4485188055406102 </DataArray>
<DataArray Name="forces" NumberOfComponents="3" format="ascii" type="Float32">-0.92498859980500692 -0.54624322374398437 -0.93182384642892457 -0.019879461862283843 -0.26429498434234977 -1.368414757687699 -0.012189579221523174 -0.31350541857519987 -0.96010702599751341 0.70345718979940797 0.0 -0.66932704247765218 -1.433676476431949 0.1118737403658428 -0.01970749520868087 0.0094470294976410352 -0.38340987161799339 0.046660013537602629 -0.0044798485300658747 -0.40885633354086964 -0.84801173574500877 0.84857559834244134 -0.45944722757732226 0.040368373337590191 -0.067871652974097904 0.6634280692514718 0.028264236084379068 0.093896042259698179 -0.18956713887236454 0.040610647890868878 0.16206935310978751 0.49770786652473792 0.0080880958367314515 -1.2427320776040953 -0.28380901837129929 0.84412982121610936 -0.0092966700823079451 0.15118168368586662 1.1336786968193673 1.3311625904855096 0.2183916386157197 0.9666920142945995 -0.013875361107832707 -0.067772640926267877 0.54392235287739221 -0.21059793303116331 0.48777042233362444 -0.23907455200356953 0.12105383255014383 0.28300691757398727 -0.041863088895349281 -0.093796166193852074 0.64392001177112357 0.041338989919022615 -0.038349989341196537 -0.14577364119709935 0.53085272455136712 0.00092854436337173885 0.48823078250856694 0.067556439668585516 0.11639720754980029 -0.31887782325215486 0.055656442682717522 -1.3028752993832009 -0.24043889355513734 -0.026376768497332136 0.013795475303880939 0.35131558109907246 0.093272279830740795 0.070180590952922173 -0.020950190421633111 0.034827465778473635 0.032835277448747743 -0.004620895334379968 0.12415997989695665 1.0061923990380115 -0.26919950663526843 0.068370759361010336 -0.041351458732902607 0.32740111790040821 0.085616877534645044 0.038607940522494055 -0.23583471122342919 -0.053674284071874905 0.042372865839789553 -0.43217857148034627 0.018724508712448421 0.063688702174562406 0.35508009798224144 -0.10124999170531077 0.083559158129746486 0.043426926612624553 0.057178026285928961 0.011567855468915145 0.020364415954628109 0.022880142706517143 0.073238078522504177 -0.042670010675053834 -0.083050677687982813 -0.0042163957257573548 0.66665257777784226 -0.0020287773542594922 -1.4461390647974364 -0.59481482006041642 -0.026760806428313688 0.048348122593530787 -0.22324413965834455 -0.0041436402688320014 0.006945715592009967 0.47555211977240841 0.0066937885776515577 1.0673898613280288 -0.22669811747470622 0.014656682658893111 0.012250855625083927 0.48299066969194093 0.0056886956564516644 0.024192167189251611 0.0455274858893778 0.0098229339565404361 0.062588631201778294 -0.37406139394816984 -0.0024736417966359503 0.027404343824355831 0.32500790725548923 -0.23602834900895173 0.7257638303011712 -0.02710689203379351 0.0035196838968335267 -0.0012431014658983624 -0.036774751819549922 -0.81415482867873035 0.014208449336789514 -0.32317532870165139 -0.0052403121234462224 0.08598065170578198 -0.40122575635440616 0.12557483233379726 0.019062013642318965 -0.34330076575333418 0.69985682526375581 0.069543207683446101 0.35355701323840849 -0.26913805003799862 -0.061640351123033149 -0.36103948832226057 0.81881367669567973 -0.026063797363647674 -0.17654871432678962 -0.076487426680857673 -0.093577262495680297 0.30936701287463197 0.077092264035424962 0.076666481580979315 0.32210060016309872 -0.0076826696462566346 0.006310422454222947 0.33379742548331809 0.030680697488238214 0.01167573309651837 -0.45001143174613678 0.061121219484892172 0.025903431325364927 0.36968382702777242 0.013357825809277118 0.026168552829295349 0.31274712346340022 -0.037031144065505117 </DataArray>
<DataArray Name="radii" format="ascii" type="Float32">1.2 1.2 1 1 1.4 1.2 1 1 1.4 1 1.2 1.4 1.4 1.4 1 1.2 1 1.4 1 1.2 1 1.4 1 1.2 1.2 1 1 1 1 1 1.4 1.4 1.4 1.4 1.4 1.2 1.2 1.2 1.2 1.2 1.2 1 1 1 1 1 1 1 1 1 1 1 1 1 1 1 </DataArray>
</PointData>
<CellData/>
</Piece>
</UnstructuredGrid>
</VTKFile>
