<?xml version="1.0" ?>
<VTKFile byte_order="LittleEndian" type="UnstructuredGrid" version="0.1">
<UnstructuredGrid>
<Piece NumberOfCells="0" NumberOfPoints="82">
<Points>
<DataArray NumberOfComponents="3" format="ascii" type="Float32">1.8977507390705315 1.8744091913857377 2.0 5.1710729987521926 2.2177599117932063 2.0 7.200512198237309 1 2.0 8.2270091096847864 1.9513765825991904 2.0 13.033089641170204 1.9700899255679412 2.0 16.0 1 2.0 19.150416415050646 1.9450291516826561 2.0 22.066916215740498 1 2.0 23.625344700728544 1.9067512903226693 2.0 28.100757759708014 1 2.0 31.0 1 2.0 33.888207919483833 1 2.0 38.114343267689129 1.9319937253705803 2.0 40.109365776728296 1 2.0 43.0 1 2.0 45.957115569249687 1 2.0 48.238403002449331 1.9292822116998252 2.0 52.0 1 2.0 54.736880946580207 1 2.0 56.679629885642186 1.9011423940485133 2.0 59.332682981215044 2.1506483062394062 2.0 63.725379416981035 1.9136831986297533 2.0 68.592285220033347 1.9186424721575359 2.0 70.123937982675002 2.4548871711734392 2.0 73.155184789638838 1 2.0 75.534629317236991 1.9475846629520308 2.0 78.219042115130961 1.9608583275477867 2.0 82.295395915777419 1 2.0 84.536747659366199 1 2.0 85.829806470825602 1.9443546011120576 2.0 90.35327466701095 1.9504179486342648 2.0 94.241960465483999 2.3949259287363489 2.0 96.087124667676946 2.7774710176506692 2.0 102.30517844389225 1.9119548812221221 2.0 1.9968207135353828 4.8098861317204422 2.0 4.0075598326685498 1 2.0 11.416307575815758 1.953191870923646 2.0 14.77571084921968 2.7553727776240358 2.0 17.48085789350748 2.3768465266270464 2.0 27.196004995626698 3.1645906026360171 2.0 35.428211245162011 1.7143433335447023 2.0 50.109309751621865 1 2.0 58.164277201031723 3.1486197647831826 2.0 61.655318203812307 1.9114848273069938 2.0 63.318641966952875 3.6853197561296875 2.0 66.036290134873994 1.9532275300594359 2.0 71.975740415275908 1 2.0 76.792076454803279 3.2314625072370369 2.0 80.851480997028361 1.3265457229130975 2.0 88.506201566491157 2.8766136923846259 2.0 91.563417790796137 1.9435863719808446 2.0 94.281761337485165 1 2.0 98.066980175468828 1.9527347883885047 2.0 99.352999644529348 1.9555679940455768 2.0 2.8264001531809426 1.8957939488563695 2.0 6.1597558179428606 1.3769965062087699 2.0 9.0302866373207955 3.3861124481910005 2.0 13.983831357716193 1 2.0 20.653851652060357 1.9652428442118541 2.0 24.137793715311375 3.3761432954538728 2.0 37.007331786157096 2.809776657255866 2.0 48.5252526692611 3.5935142565640787 2.0 56.436247901493282 3.3167781689627867 2.0 60.271999151737738 1.9249753021523821 2.0 64.87337268677534 1.9410295999414162 2.0 67.805121419810618 3.7800275455328527 2.0 71.05815250536773 1.9465548179781162 2.0 74.21701678473876 1.2817743473989576 2.0 79.401579735506814 1.9609637005256975 2.0 87.06258094970417 2.4447093931835071 2.0 89.099919959542021 1.9017141616594548 2.0 93.091134513722352 3.746412748728341 2.0 95.340566703331618 1.3826649722867663 2.0 101.9443155052406 3.1924586989568047 2.0 1.9593561391417551 3.2333670299112303 2.0 10.037011024658254 1.9268247766262707 2.0 25.989024018385678 1.892224859341356 2.0 62.412090332667653 2.6730045964812583 2.0 67.284902666193219 1.9227024711295801 2.0 92.690512711684818 1.9211289611001108 2.0 96.81336808641646 1.424763269075092 2.0 100.58138488947226 1.7767284853602059 2.0 </DataArray>
</Points>
<Cells>
<DataArray Name="connectivity" format="ascii" type="Int32">0</DataArray>
<DataArray Name="offsets" format="ascii" type="Int32">0</DataArray>
<DataArray Name="types" format="ascii" type="UInt8">1</DataArray>
</Cells>
<PointData>
<DataArray Name="Points" NumberOfComponents="3" format="ascii" type="Float32">1.8977507390705315 1.8744091913857377 2.0 5.1710729987521926 2.2177599117932063 2.0 7.200512198237309 1 2.0 8.2270091096847864 1.9513765825991904 2.0 13.033089641170204 1.9700899255679412 2.0 16.0 1 2.0 19.150416415050646 1.9450291516826561 2.0 22.066916215740498 1 2.0 23.625344700728544 1.9067512903226693 2.0 28.100757759708014 1 2.0 31.0 1 2.0 33.888207919483833 1 2.0 38.114343267689129 1.9319937253705803 2.0 40.109365776728296 1 2.0 43.0 1 2.0 45.957115569249687 1 2.0 48.238403002449331 1.9292822116998252 2.0 52.0 1 2.0 54.736880946580207 1 2.0 56.679629885642186 1.9011423940485133 2.0 59.332682981215044 2.1506483062394062 2.0 63.725379416981035 1.9136831986297533 2.0 68.592285220033347 1.9186424721575359 2.0 70.123937982675002 2.4548871711734392 2.0 73.155184789638838 1 2.0 75.534629317236991 1.9475846629520308 2.0 78.219042115130961 1.9608583275477867 2.0 82.295395915777419 1 2.0 84.536747659366199 1 2.0 85.829806470825602 1.9443546011120576 2.0 90.35327466701095 1.9504179486342648 2.0 94.241960465483999 2.3949259287363489 2.0 96.087124667676946 2.7774710176506692 2.0 102.30517844389225 1.9119548812221221 2.0 1.9968207135353828 4.8098861317204422 2.0 4.0075598326685498 1 2.0 11.416307575815758 1.953191870923646 2.0 14.77571084921968 2.7553727776240358 2.0 17.48085789350748 2.3768465266270464 2.0 27.196004995626698 3.1645906026360171 2.0 35.428211245162011 1.7143433335447023 2.0 50.109309751621865 1 2.0 58.164277201031723 3.1486197647831826 2.0 61.655318203812307 1.9114848273069938 2.0 63.318641966952875 3.6853197561296875 2.0 66.036290134873994 1.9532275300594359 2.0 71.975740415275908 1 2.0 76.792076454803279 3.2314625072370369 2.0 80.851480997028361 1.3265457229130975 2.0 88.506201566491157 2.8766136923846259 2.0 91.563417790796137 1.9435863719808446 2.0 94.281761337485165 1 2.0 98.066980175468828 1.9527347883885047 2.0 99.352999644529348 1.9555679940455768 2.0 2.8264001531809426 1.8957939488563695 2.0 6.1597558179428606 1.3769965062087699 2.0 9.0302866373207955 3.3861124481910005 2.0 13.983831357716193 1 2.0 20.653851652060357 1.9652428442118541 2.0 24.137793715311375 3.3761432954538728 2.0 37.007331786157096 2.809776657255866 2.0 48.5252526692611 3.5935142565640787 2.0 56.436247901493282 3.3167781689627867 2.0 60.271999151737738 1.9249753021523821 2.0 64.87337268677534 1.9410295999414162 2.0 67.805121419810618 3.7800275455328527 2.0 71.05815250536773 1.9465548179781162 2.0 74.21701678473876 1.2817743473989576 2.0 79.401579735506814 1.9609637005256975 2.0 87.06258094970417 2.4447093931835071 2.0 89.099919959542021 1.9017141616594548 2.0 93.091134513722352 3.746412748728341 2.0 95.340566703331618 1.3826649722867663 2.0 101.9443155052406 3.1924586989568047 2.0 1.9593561391417551 3.2333670299112303 2.0 10.037011024658254 1.9268247766262707 2.0 25.989024018385678 1.892224859341356 2.0 62.412090332667653 2.6730045964812583 2.0 67.284902666193219 1.9227024711295801 2.0 92.690512711684818 1.9211289611001108 2.0 96.81336808641646 1.424763269075092 2.0 100.58138488947226 1.7767284853602059 2.0 </DataArray>
<DataArray Name="forces" NumberOfComponents="3" format="ascii" type="Float32">-3.5883936793513649 -2.6435098094516647 0.0 0.71056581522875761 1.9275129936270927 0.0 -0.046880635083767275 -1.2714896770400426 0.0 -0.92703928507809041 0.057627564411925986 0.0 0.9984046127146593 0.71436425882108257 0.0 0.0 0.0 0.0 -1.1963048545951369 -0.16513278391688305 0.0 0.046189944209519163 -0.97857451598978706 0.0 -0.75975004431572224 -1.5084778068018145 0.0 0.50580507332792868 -0.46605054830468318 0.0 0.0 0.0 0.0 -0.092087982880727365 -0.043530278447546054 0.0 0.70267355169518264 -0.62260544397033024 0.0 0.41245475145123961 -0.20588846985704284 0.0 0.0 0.0 0.0 -0.21128180239209812 -0.085774915045900402 0.0 -0.53173850541099421 -0.71776484589817613 0.0 0.0 0.0 0.0 -0.49730607114750691 -0.22956561018630892 0.0 -0.89600857937881839 -1.7053196006237041 0.0 -2.0405021338303477 0.30798493530448423 0.0 -0.90065140077049033 -1.2652054767246179 0.0 0.56633623873129313 -1.0911619127956274 0.0 0.11153510674769829 2.1736259210437585 0.0 0.15298885369129533 -0.36843128070114872 0.0 -0.42494281810471635 -0.075448218931505662 0.0 -0.97663178181823085 -0.35817418514402644 0.0 0.29311038623738944 -0.070273855650584263 0.0 -0.8791664312318388 -0.62992150726298224 0.0 -1.6707473289006929 -0.18880584504158182 0.0 -0.45963713004366968 0.02398471917977766 0.0 0.73836075358441056 1.7946627334305911 0.0 0.2746216785910004 3.1680588922348161 0.0 2.0520576984341323 -1.3258600301666637 0.0 -0.11157568622768849 3.5094568378608 0.0 0.67581557234527112 -1.6487215696047623 0.0 0.71611027697105278 0.12133432464141825 0.0 0.72679702609885932 0.31514046901143966 0.0 -0.95570089679558101 0.21845039032085403 0.0 1.7392014259215389 1.6442987270898444 0.0 0.074472719152968977 0.041719529406691047 0.0 0.53186247202150672 -0.28896145891927144 0.0 -0.44503040874858218 1.3655383287660918 0.0 0.11195824738916804 -1.3423563694327714 0.0 0.04020762895149832 1.8295960394632491 0.0 0.21725934842510153 0.12258576662071821 0.0 0.64644236277832312 -1.1687952813639941 0.0 0.056163973931365629 1.1912849001678869 0.0 0.76233270728841096 -0.36060387333609611 0.0 -0.29262651634997439 1.9096700019057331 0.0 -0.12242150690910325 -0.2157665148173733 0.0 0.025192088486700071 -2.1188141952603354 0.0 0.12870969384279501 0.1052932103572302 0.0 0.58896291110036625 0.20472334002001233 0.0 2.1407894590957706 -1.8930209761386272 0.0 -0.034509385971556505 -0.76928510760388902 0.0 0.016345113133398148 1.7630142006718434 0.0 0.90970982705239034 -0.95430545162702418 0.0 0.78813120370888257 0.54425803073320955 0.0 -0.83531321795932811 2.8549376462581133 0.0 -1.0975130394186638 0.83030466286822813 0.0 0.18389797560221172 1.0870705426975125 0.0 -0.33302947764748841 1.3623861773790116 0.0 0.19225029320678538 -0.86891397751139454 0.0 -0.40095676193326302 -0.30549532598360563 0.0 0.017158090564635187 1.6637042850041002 0.0 2.3205286415309652 -0.11159018378791508 0.0 -0.41660608253810882 -0.37934452783288264 0.0 1.4884884123357489 0.39408333003749957 0.0 -0.74774941553413887 0.9653878397968243 0.0 -0.75791798873821348 -1.6852536631048385 0.0 -0.15640706558205494 1.8832874727706339 0.0 0.65791925297403209 -1.595947837112385 0.0 -0.36518123978672917 1.4552449440530135 0.0 -1.4263787540603046 2.2390143631847739 0.0 -0.49009797169282032 -0.80400746912302279 0.0 0.65316139711028809 -2.0182766321726477 0.0 0.2214777909218722 1.4713053134919949 0.0 0.38062870519367842 -0.94867800125414137 0.0 0.91358799804163648 -1.0038996565777851 0.0 -0.45993454516975235 -1.6089395928688437 0.0 0.63108067132718992 -0.36852174508608904 0.0 </DataArray>
<DataArray Name="radii" format="ascii" type="Float32">2 2 1 2 2 1 2 1 2 1 1 1 2 1 1 1 2 1 1 2 2 2 2 2 1 2 2 1 1 2 2 2 2 2 2 1 2 1 1 2 1 1 1 2 1 2 1 1 1 1 2 1 2 2 2 1 1 1 2 2 1 1 1 2 2 1 2 1 2 2 2 1 1 1 2 2 2 1 2 2 1 1 </DataArray>
</PointData>
<CellData/>
</Piece>
</UnstructuredGrid>
</VTKFile>
