<?xml version="1.0" ?>
<VTKFile byte_order="LittleEndian" type="UnstructuredGrid" version="0.1">
<UnstructuredGrid>
<Piece NumberOfCells="0" NumberOfPoints="21">
<Points>
<DataArray NumberOfComponents="3" format="ascii" type="Float32">1.0 1 1.0000561806793336 3.261156663636569 1 0.98126984624875979 5.4216821639344017 1.1602964742974378 1.163542160577629 8.6128395409169194 1.1591799928781534 1.1712012278107882 1.3517181752212961 1.3295006845776658 3.4762463227694687 3.962662410775569 1.1358748905565872 3.286696763016109 7.0099257692260899 1.4345570253235125 2.6346351724553712 9.0 1 4.3809220726466496 2.0262083178802177 1 5.761648480522755 4.8799948874830212 1 5.7762945107783654 7.3242796141152837 1.1692512107447679 6.6415992756339044 0.99631165042706049 1 7.4692901978898396 3.2423485023714096 1 7.8849923255326457 8.9000000000000004 1.1683270259131562 8.4382294702398806 6.7278117263968458 1 9.0 2.6090759078069268 2.6528083425303715 1.845995516978111 6.0434085101074286 3.1132121464901514 2.212087687339908 2.7787152340330108 3.1575000162369298 5.1369470184986934 5.2272703218476551 1 7.7353952168686577 5.3595329857233942 2.8268906362503126 4.3025162555939902 6.9244542718448816 1 4.5300618598338271 </DataArray>
</Points>
<Cells>
<DataArray Name="connectivity" format="ascii" type="Int32">0</DataArray>
<DataArray Name="offsets" format="ascii" type="Int32">0</DataArray>
<DataArray Name="types" format="ascii" type="UInt8">1</DataArray>
</Cells>
<PointData>
<DataArray Name="Points" NumberOfComponents="3" format="ascii" type="Float32">1.0 1 1.0000561806793336 3.261156663636569 1 0.98126984624875979 5.4216821639344017 1.1602964742974378 1.163542160577629 8.6128395409169194 1.1591799928781534 1.1712012278107882 1.3517181752212961 1.3295006845776658 3.4762463227694687 3.962662410775569 1.1358748905565872 3.286696763016109 7.0099257692260899 1.4345570253235125 2.6346351724553712 9.0 1 4.3809220726466496 2.0262083178802177 1 5.761648480522755 4.8799948874830212 1 5.7762945107783654 7.3242796141152837 1.1692512107447679 6.6415992756339044 0.99631165042706049 1 7.4692901978898396 3.2423485023714096 1 7.8849923255326457 8.9000000000000004 1.1683270259131562 8.4382294702398806 6.7278117263968458 1 9.0 2.6090759078069268 2.6528083425303715 1.845995516978111 6.0434085101074286 3.1132121464901514 2.212087687339908 2.7787152340330108 3.1575000162369298 5.1369470184986934 5.2272703218476551 1 7.7353952168686577 5.3595329857233942 2.8268906362503126 4.3025162555939902 6.9244542718448816 1 4.5300618598338271 </DataArray>
<DataArray Name="forces" NumberOfComponents="3" format="ascii" type="Float32">0.0 0.0 0.0 -0.02537552181877599 -0.036121037963068973 -0.019937766643101207 -0.013316297760072239 -0.0037388363437831952 -0.038808431813687393 0.033711693139993615 -0.0049273020816884665 -0.030655551851960464 -0.0513947599323447 -0.022608520718115289 0.0011352162220604652 0.013234360104573243 -0.029734983740479785 -0.018570678979225638 0.014128795126861268 0.029908230411547936 -0.006639198355795517 0.0 0.0 0.0 -0.0062925495722707253 -0.028521086388359391 0.0028730834485978232 -0.0023572440004863263 0.0 -0.01300466270141872 -0.0056043817082722554 0.0057932501520642464 0.038716296038608308 -0.0039261531998144835 0.0 0.0064829190271678688 -0.012657388005702139 0.0 0.00089844572360578564 0.10644742647550873 0.0048094791829366244 0.054529592274111395 -0.024374304120845222 -0.0048094791829366244 0.035409810762711047 -0.003531809672540874 0.043546486599163936 0.0034787465238703946 0.0 0.0 0.0 0.021432451716564861 0.043938924884302857 0.0061924226779762545 -0.0098911590497721292 0.0 -0.0085626047079598033 0.022802649159104838 0.02690880615712082 0.016153771007337378 -0.013253280855873496 -0.023727556531855133 0.021837918451802697 </DataArray>
<DataArray Name="radii" format="ascii" type="Float32">1 1 1.2 1.2 1.4 1.2 1 1 1 1 1.2 1 1 1.2 1 1 1 1.4 1 1.2 1 </DataArray>
</PointData>
<CellData/>
</Piece>
</UnstructuredGrid>
</VTKFile>
