<?xml version="1.0" ?>
<VTKFile byte_order="LittleEndian" type="UnstructuredGrid" version="0.1">
<UnstructuredGrid>
<Piece NumberOfCells="0" NumberOfPoints="27">
<Points>
<DataArray NumberOfComponents="3" format="ascii" type="Float32">0.99365220427795653 1 0.93382764211042846 3.0385534751717165 1 0.98896534610458997 4.9982938943034476 1 0.94383851097929405 8.8518167231171301 1.1606467320804792 1.1690671776196302 1.1915641875788143 1.1558329736743824 2.9981792677505048 2.9360486423664378 1 4.2606217908087443 6.7128735020057002 1.3274573479494041 2.4357370185150775 9.0 1 3.6079940887119148 2.6901321560437026 1.12611416604838 6.6413226068039926 5.1244699338844999 1.3681065053138437 6.7726171239439221 7.3745997753438983 1.2694781726717319 7.3050418701498741 0.94415872304673532 1 7.9462387500448131 2.8374907434302297 1.1751236827924645 8.9000000000000004 8.8628321804089012 1.1648350174341549 8.8311750221315997 6.7069470266862004 1 9.0 2.3058478584214841 2.6159155098724676 1.7862890371638473 5.9277081596770334 3.5011701594280775 1.8290373857858411 3.0457138766863716 2.9364900468382662 5.0984925604569815 4.8533688542863267 1 9.0 5.3666262443144248 2.7487081938753515 3.7910536854196213 7.1761786686486051 1.362631668321024 5.0239009419262945 1.0573418672819483 1.510584285992254 5.2072668120139776 1.1910046589056043 2.9598467814388352 7.1042336554916616 4.0901568972757518 1 2.6898391481534389 4.8953451265912493 1 4.4779807889983747 9.0 1 6.3928557732100773 4.9360047698236551 4.0073797984943793 5.2372753257704732 </DataArray>
</Points>
<Cells>
<DataArray Name="connectivity" format="ascii" type="Int32">0</DataArray>
<DataArray Name="offsets" format="ascii" type="Int32">0</DataArray>
<DataArray Name="types" format="ascii" type="UInt8">1</DataArray>
</Cells>
<PointData>
<DataArray Name="Points" NumberOfComponents="3" format="ascii" type="Float32">0.99365220427795653 1 0.93382764211042846 3.0385534751717165 1 0.98896534610458997 4.9982938943034476 1 0.94383851097929405 8.8518167231171301 1.1606467320804792 1.1690671776196302 1.1915641875788143 1.1558329736743824 2.9981792677505048 2.9360486423664378 1 4.2606217908087443 6.7128735020057002 1.3274573479494041 2.4357370185150775 9.0 1 3.6079940887119148 2.6901321560437026 1.12611416604838 6.6413226068039926 5.1244699338844999 1.3681065053138437 6.7726171239439221 7.3745997753438983 1.2694781726717319 7.3050418701498741 0.94415872304673532 1 7.9462387500448131 2.8374907434302297 1.1751236827924645 8.9000000000000004 8.8628321804089012 1.1648350174341549 8.8311750221315997 6.7069470266862004 1 9.0 2.3058478584214841 2.6159155098724676 1.7862890371638473 5.9277081596770334 3.5011701594280775 1.8290373857858411 3.0457138766863716 2.9364900468382662 5.0984925604569815 4.8533688542863267 1 9.0 5.3666262443144248 2.7487081938753515 3.7910536854196213 7.1761786686486051 1.362631668321024 5.0239009419262945 1.0573418672819483 1.510584285992254 5.2072668120139776 1.1910046589056043 2.9598467814388352 7.1042336554916616 4.0901568972757518 1 2.6898391481534389 4.8953451265912493 1 4.4779807889983747 9.0 1 6.3928557732100773 4.9360047698236551 4.0073797984943793 5.2372753257704732 </DataArray>
<DataArray Name="forces" NumberOfComponents="3" format="ascii" type="Float32">-0.018128398432944507 -0.014742053660035464 -0.18897880801422204 -0.021202952210216643 -0.04737020292790662 -0.031513396326061968 -0.028536717744175516 -0.020076041181632403 -0.16038919557843695 0.14798116437409478 -0.0090305648978833142 -0.088339725051253773 -0.024091476060859297 -0.022777971740642489 0.01080679411734875 0.0018171860162770406 -0.089674001571738993 0.015445782973635257 -0.016283676315718181 -0.066491437137086037 -0.019427667213152089 0.050708876762703303 -0.010069530933449491 -0.039086374730342897 0.015962973375700334 -0.10765064395429182 0.0074305150040160257 0.012889651685323541 0.049596753619751834 -0.0032668596145794121 0.0017822002741015447 0.036970624567847721 -0.0092088229040935415 -0.15947471562416676 -0.067335977220488452 0.0014592422796597254 0.0017725101435635549 0.032313539747703013 0.28558572497838119 0.17943973794048512 0.0029305801935749654 0.089031412966696977 0.0020184181212856422 -0.032678384824765982 0.15493808499250197 -0.0050781248891019308 0.068545257659005113 0.0049049482250853697 -0.025835385111015845 0.069460276860771109 -0.020041380258791517 -0.0072762011459364187 0.10407777512182625 -0.00083514433696393691 0.0022195011565222245 -0.037656136375555677 0.13576957407064677 -0.012395094630793276 0.068954459786274458 -0.011923135870179041 0.0092619394581531789 0.033961400702423157 -0.017363153144153994 -0.40741126256346888 0.06057037637572682 0.022774909464104109 -0.025689410078708435 0.095458741156255841 -0.0013210181896323898 -0.019943301450218762 0.0 0.0047161766512227588 0.0033623129814619752 -0.069816980500354398 -0.00049077890921177952 0.16490703676613466 -0.031621558772549317 -0.0051545164111648153 0.01180825065188146 0.034155534155333345 0.027071745256398209 </DataArray>
<DataArray Name="radii" format="ascii" type="Float32">1 1 1 1.2 1.2 1 1.4 1 1.2 1.4 1 1 1.2 1.2 1 1 1 1.2 1 1 1.4 1.2 1.2 1 1 1 1 </DataArray>
</PointData>
<CellData/>
</Piece>
</UnstructuredGrid>
</VTKFile>
