<?xml version="1.0" ?>
<VTKFile byte_order="LittleEndian" type="UnstructuredGrid" version="0.1">
<UnstructuredGrid>
<Piece NumberOfCells="0" NumberOfPoints="17">
<Points>
<DataArray NumberOfComponents="3" format="ascii" type="Float32">1.0 1 1.0000561806793336 3.1557389849439517 1 0.98369775735539777 5.8076779204886337 1.1638088526306456 1.2 8.2443909434785301 1.1656098242630857 1.182499772084427 1.2 1.1638088526306456 3.546761030270567 3.7079734229828469 1.3345889676331282 3.9936215961605304 7.1915624623761332 1 3.1316501368298675 9.0 1 4.0456683656096155 2.0135326177541217 1 5.600541355485249 5.126750389297233 1.3573234048669438 6.5185250690584073 7.6410803179638132 1.158045338492985 5.6601272717456181 0.96776453564476528 1 7.3929453255348294 3.2542392435802769 1 7.8841482978718993 8.8084007435742411 1.1638088526306456 7.7549153613377646 6.2849172844163421 1 8.5359191423370362 2.5457899746071524 2.4229598609367695 2.2496403430640877 5.7836295020689867 2.3127563630276264 3.0801448916801735 </DataArray>
</Points>
<Cells>
<DataArray Name="connectivity" format="ascii" type="Int32">0</DataArray>
<DataArray Name="offsets" format="ascii" type="Int32">0</DataArray>
<DataArray Name="types" format="ascii" type="UInt8">1</DataArray>
</Cells>
<PointData>
<DataArray Name="Points" NumberOfComponents="3" format="ascii" type="Float32">1.0 1 1.0000561806793336 3.1557389849439517 1 0.98369775735539777 5.8076779204886337 1.1638088526306456 1.2 8.2443909434785301 1.1656098242630857 1.182499772084427 1.2 1.1638088526306456 3.546761030270567 3.7079734229828469 1.3345889676331282 3.9936215961605304 7.1915624623761332 1 3.1316501368298675 9.0 1 4.0456683656096155 2.0135326177541217 1 5.600541355485249 5.126750389297233 1.3573234048669438 6.5185250690584073 7.6410803179638132 1.158045338492985 5.6601272717456181 0.96776453564476528 1 7.3929453255348294 3.2542392435802769 1 7.8841482978718993 8.8084007435742411 1.1638088526306456 7.7549153613377646 6.2849172844163421 1 8.5359191423370362 2.5457899746071524 2.4229598609367695 2.2496403430640877 5.7836295020689867 2.3127563630276264 3.0801448916801735 </DataArray>
<DataArray Name="forces" NumberOfComponents="3" format="ascii" type="Float32">0.0 0.0 0.0 0.0062735696735237061 -0.015088515093029303 -0.013020726125514746 0.0 0.0 0.0 0.007025759606031255 0.0014384498438065371 -0.013977566141687348 0.0 0.0 0.0 -0.065739855723252832 -0.012899815294652096 -0.048862262836815322 -0.053657618755953262 -0.0014384498438065371 -0.009401253423814088 0.04663185914992201 0.0 0.023378819565501436 0.025123348134084438 0.0 -0.042947957081211387 -0.018456353192359415 0.005258353939642235 0.079870766307272217 0.052611186574470288 -0.0046033629079775757 -0.025563487927474968 -0.025746712403233559 0.0 0.044132391565705441 0.0 0.0 0.0 0.00670973826825418 0.0 0.011223508404408437 0.0 0.0 0.0 -0.0062735696735237061 0.015088515093029303 0.013020726125514746 0.029374005267400013 0.013820745486598727 -0.014362504002329588 </DataArray>
<DataArray Name="radii" format="ascii" type="Float32">1 1 1.2 1.2 1.2 1.4 1 1 1 1.4 1.2 1 1 1.2 1 1 1 </DataArray>
</PointData>
<CellData/>
</Piece>
</UnstructuredGrid>
</VTKFile>
