<?xml version="1.0" ?>
<VTKFile byte_order="LittleEndian" type="UnstructuredGrid" version="0.1">
<UnstructuredGrid>
<Piece NumberOfCells="0" NumberOfPoints="16">
<Points>
<DataArray NumberOfComponents="3" format="ascii" type="Float32">1.0 1 1.0000561806793336 3.0749624704789964 1 0.98397835626255237 5.5716063811490875 1.1577205335768781 1.1141280586012707 8.1117778433308434 1.1638088526306456 1.2 1.1879364334485538 1.1582795876282928 3.5351652034397496 4.7918143415366456 1.3450571944171545 3.6830607608037891 7.1177344344841327 1 3.1624228917800155 9.0 1 4.0 2.2432709566060498 1 5.4601552265685669 4.9906688949921083 1 5.9802725520692643 7.156359365045553 1.1640418661777281 5.8302546095992795 1.0 1 7.0253754882630846 3.6526247103569167 1 7.5282422727881428 8.810695997405249 1.1638088526306456 7.5891314097280453 6.0 1 8.0 2.8228054874173032 2.239531733868898 2.5244070525845346 </DataArray>
</Points>
<Cells>
<DataArray Name="connectivity" format="ascii" type="Int32">0</DataArray>
<DataArray Name="offsets" format="ascii" type="Int32">0</DataArray>
<DataArray Name="types" format="ascii" type="UInt8">1</DataArray>
</Cells>
<PointData>
<DataArray Name="Points" NumberOfComponents="3" format="ascii" type="Float32">1.0 1 1.0000561806793336 3.0749624704789964 1 0.98397835626255237 5.5716063811490875 1.1577205335768781 1.1141280586012707 8.1117778433308434 1.1638088526306456 1.2 1.1879364334485538 1.1582795876282928 3.5351652034397496 4.7918143415366456 1.3450571944171545 3.6830607608037891 7.1177344344841327 1 3.1624228917800155 9.0 1 4.0 2.2432709566060498 1 5.4601552265685669 4.9906688949921083 1 5.9802725520692643 7.156359365045553 1.1640418661777281 5.8302546095992795 1.0 1 7.0253754882630846 3.6526247103569167 1 7.5282422727881428 8.810695997405249 1.1638088526306456 7.5891314097280453 6.0 1 8.0 2.8228054874173032 2.239531733868898 2.5244070525845346 </DataArray>
<DataArray Name="forces" NumberOfComponents="3" format="ascii" type="Float32">0.0 0.0 0.0 0.0024854138416296294 -0.01349374345236393 -0.016749245212381948 0.028454872629714547 -0.0063648119028151184 -0.089771700514652317 0.0 0.0 0.0 -0.012611417256382467 -0.0057803691610111832 0.0012913562051266548 0.0029102419794053182 -0.0059407019250161544 0.1045413659600584 0.00058279869433501899 -0.00010013093451452789 -0.00010527194961986776 0.0 0.0 0.0 0.0026056135141855345 -0.00050070469963865087 0.0048108294337504557 0.033023558654110968 0.0 -0.03820461943929377 -0.010992251466305404 0.00024359554499195173 -0.011686869351184305 0.0 0.0 0.0 -0.033023558654110968 0.0 0.03820461943929377 0.011181741790499154 0.0 0.011888333870892045 0.0 0.0 0.0 -0.023713561688515676 0.03316076185602599 -0.0062697972538020286 </DataArray>
<DataArray Name="radii" format="ascii" type="Float32">1 1 1.2 1.2 1.2 1.4 1 1 1 1 1.2 1 1 1.2 1 1 </DataArray>
</PointData>
<CellData/>
</Piece>
</UnstructuredGrid>
</VTKFile>
