<?xml version="1.0" ?>
<VTKFile byte_order="LittleEndian" type="UnstructuredGrid" version="0.1">
<UnstructuredGrid>
<Piece NumberOfCells="0" NumberOfPoints="19">
<Points>
<DataArray NumberOfComponents="3" format="ascii" type="Float32">1.0 1 1.0000561806793336 3.2244980414687769 1 0.95810294139830188 5.8096913590091441 1.1571106371336677 1.1878011841862715 8.2583454004554024 1.1654079486887057 1.1845720950842473 1.1752409015883754 1.1418055760391075 3.5579722140829442 4.0650435964392591 1 3.9153370027281005 7.2153267284786935 1 3.1257054312811712 9.0 1 4.0224975701964487 2.0135326177541217 1 5.600541355485249 4.8413440263318028 1.1413182175550942 5.7748034182073775 7.5931855733924962 1.1646472170673472 5.6979880391882469 1.0 1 7.3929453255348294 3.2542392435802769 1 7.8841482978718993 8.8014729635944668 1.1638088526306456 7.7703789542858699 6.794975742806721 1 9.0 2.4601593842190432 2.4017013362505968 2.2070850746934623 5.6742206180251493 2.2584212862288338 3.1311268701837225 2.824409121269758 2.5397019175199227 4.1783040844798736 5.3261797969041345 1.4188495339121101 7.5953327982492347 </DataArray>
</Points>
<Cells>
<DataArray Name="connectivity" format="ascii" type="Int32">0</DataArray>
<DataArray Name="offsets" format="ascii" type="Int32">0</DataArray>
<DataArray Name="types" format="ascii" type="UInt8">1</DataArray>
</Cells>
<PointData>
<DataArray Name="Points" NumberOfComponents="3" format="ascii" type="Float32">1.0 1 1.0000561806793336 3.2244980414687769 1 0.95810294139830188 5.8096913590091441 1.1571106371336677 1.1878011841862715 8.2583454004554024 1.1654079486887057 1.1845720950842473 1.1752409015883754 1.1418055760391075 3.5579722140829442 4.0650435964392591 1 3.9153370027281005 7.2153267284786935 1 3.1257054312811712 9.0 1 4.0224975701964487 2.0135326177541217 1 5.600541355485249 4.8413440263318028 1.1413182175550942 5.7748034182073775 7.5931855733924962 1.1646472170673472 5.6979880391882469 1.0 1 7.3929453255348294 3.2542392435802769 1 7.8841482978718993 8.8014729635944668 1.1638088526306456 7.7703789542858699 6.794975742806721 1 9.0 2.4601593842190432 2.4017013362505968 2.2070850746934623 5.6742206180251493 2.2584212862288338 3.1311268701837225 2.824409121269758 2.5397019175199227 4.1783040844798736 5.3261797969041345 1.4188495339121101 7.5953327982492347 </DataArray>
<DataArray Name="forces" NumberOfComponents="3" format="ascii" type="Float32">0.0 0.0 0.0 0.014608926690539228 -0.027414379337651174 -0.024192832544346513 0.00038879428740063463 -0.0038677847866333392 -0.0070440245227357708 0.0046909410079194582 0.0009233742044460852 -0.0089086139360096839 -0.014296772656903201 -0.012705464387527333 0.0091215172230747783 -0.0037635943691383452 -0.013814313875416298 -0.031263278061708158 -0.010885568451575595 -0.014256887619915719 -0.0022363050531922627 0.027709799940166313 -0.00061462398000401079 0.0049881732173681767 0.0 0.0 0.0 0.0035351632226645353 -0.0010366973338579648 2.9542645627846781e-05 -0.0035630947649099966 0.0004841010587659098 0.0036279191650844364 0.0 0.0 0.0 0.0 0.0 0.0 0.00085054089175114764 0.0 0.0014707364186534941 0.055077172345016925 -0.017339153349731067 0.057743510766089787 -0.0066846277614517717 0.035636012925275053 0.0013769942702979397 -0.016671556269467015 0.017201298202102974 0.0069328102359163726 -0.0025344811374102779 0.015506625131992576 0.015004747973701058 -0.045941786333317094 0.021167370226916206 -0.027820202272736735 </DataArray>
<DataArray Name="radii" format="ascii" type="Float32">1 1 1.2 1.2 1.2 1 1 1 1 1 1.2 1 1 1.2 1 1 1 1 1 </DataArray>
</PointData>
<CellData/>
</Piece>
</UnstructuredGrid>
</VTKFile>
