<?xml version="1.0" ?>
<VTKFile byte_order="LittleEndian" type="UnstructuredGrid" version="0.1">
<UnstructuredGrid>
<Piece NumberOfCells="0" NumberOfPoints="124">
<Points>
<DataArray NumberOfComponents="3" format="ascii" type="Float32">1.5208945052173355 1.1414248311714075 2.0 4.8993790221039379 2.3242314144815412 2.0 7.3587196196956688 1 2.0 7.9190397893562814 2.1545087573377102 2.0 12.818839792668113 1.7349978087806779 2.0 16.000807897235909 1 2.0 18.882141342362676 1.5593251432009043 2.0 22.161463113271161 1 2.0 23.479169464792534 2.1190011363545675 2.0 28.100757759708014 1 2.0 31.0 1 2.0 33.835238709596503 1 2.0 38.499912133090341 2.0922599258624688 2.0 40.109365776728296 1 2.0 43.0 1 2.0 45.957115569249687 1 2.0 47.803665028780124 1.8980078256625912 2.0 52.067975324563186 1 2.0 54.507131884504368 1 2.0 57.115124454473133 1.6427296487769649 2.0 59.052311693082999 2.3332813633086795 2.0 63.124678381316848 1.3002950622894265 2.0 68.848891333449302 1.05522955341673 2.0 69.883346528990614 2.2176104184623395 2.0 73.193965902990556 1 2.0 76.000766811652909 2.1697925643161469 2.0 77.826483654170957 2.027856151587129 2.0 82.493868502103282 1 2.0 84.300943254551711 1 2.0 85.884751204438885 1.7680853200851314 2.0 90.493479201171766 2.0566951900700623 2.0 94.082068833753326 2.7293031939895083 2.0 96.147964295220973 2.6863116748495428 2.0 102.7505837928525 1.990657184168882 2.0 2.3654014099086189 5.2727274756786677 2.0 4.2162435839741548 1 2.0 11.727417747818755 1.238847946292678 2.0 15.154587997716337 2.7324813361608919 2.0 17.378737626031555 2.2903962600934022 2.0 27.268647297118203 2.7296566937393223 2.0 35.481180455049341 1.6109946286513825 2.0 50.449525347239735 1 2.0 58.001717682215059 3.2232065067195754 2.0 61.638185891330316 2.1132725209209249 2.0 63.310063069499989 4.1948505711243378 2.0 66.10037028625888 1.2222394227487652 2.0 71.801882043442006 1 2.0 76.864893562594631 3.3397965112561705 2.0 80.91263905783741 1.10101291216951 2.0 88.299819062032526 3.1529474333514336 2.0 91.454859842808247 2.0329955010963308 2.0 94.075715480724014 1 2.0 97.755175519683775 2.0026367801957337 2.0 99.513228692627862 2.1653880892685109 2.0 2.8525728735343856 1.2922546155247463 2.0 5.8815259626176575 1 2.0 8.6597995281772189 3.6036916858441685 2.0 14.232065045970929 1 2.0 21.121385569225019 2.1726310388442109 2.0 23.850140257814928 3.493983743115336 2.0 36.873788683780027 2.7689274811707358 2.0 48.540168738024505 3.5209206550814751 2.0 56.388408716709286 3.4068654106709815 2.0 60.36955229876849 2.4406699384161126 2.0 65.069577076393031 1.4571294463455968 2.0 67.754247482196334 3.8946905850178948 2.0 70.853628410444614 1.8247656927478388 2.0 74.231413745533757 1.0305791405437013 2.0 79.700089918155385 1.8271169486638819 2.0 87.016214112596586 2.6648033442949868 2.0 88.634134321887956 1.4608189843994543 2.0 93.2961988070996 4.0894908873173348 2.0 95.520437571344061 1 2.0 101.83271345480453 3.3116939405998367 2.0 1.822776394092489 3.0891552373774429 2.0 10.162169576375653 1.2117785663471203 2.0 25.997434773569839 2.1026638767678034 2.0 62.329147559929829 2.9819089611706819 2.0 67.493726400940844 1.2606678165935608 2.0 93.086139495875997 1.6638469419455006 2.0 96.851905948462999 1.0195399671511691 2.0 100.72900410909233 1.6823001480984781 2.0 0.92003931666054062 2.4389082581407995 2.0 6.4272224570961063 2.6342850684086212 2.0 9.0516340147457566 1.7067800054685871 2.0 13.71743356918183 2.6117544812047209 2.0 19.811401713611691 2.8863306780851028 2.0 23.86588303439235 1 2.0 37.467809175308567 1 2.0 49.175618164781838 1.4785317054789748 2.0 55.592301255694437 1.9619915809122765 2.0 58.914186201561613 1 2.0 63.90089300835777 2.8805768941383931 2.0 68.614725618235184 2.6519391670699757 2.0 70.555160461956106 3.6102198225305244 2.0 75.240865666380884 1.3212879645084623 2.0 78.761658471138162 1 2.0 84.551525172355028 2.2485627114449716 2.0 89.645768727675261 2.9769970461972823 2.0 95.163337849317898 2.1298868413756389 2.0 96.932763935262827 3.7271123387517497 2.0 101.87634937124145 1 2.0 0.9587778702101567 4.6657476512223122 2.0 11.199621097397621 2.4340557587324261 2.0 27.576384932358128 4.1973853547887359 2.0 61.846018789864743 1 2.0 65.483591576113014 3.0298778541982054 2.0 92.050741323388522 1 2.0 98.467546212011897 3.2909671857197655 2.0 98.7541679752064 1 2.0 3.3758868286477184 2.5895041228737492 2.0 20.403854395600352 1 2.0 25.422483270148028 3.5253113516651169 2.0 60.392957622471187 1 2.0 64.182845086234209 1.5050012107317612 2.0 72.236845971274349 2.1603489614261684 2.0 79.374511503465826 3.1685232839160302 2.0 87.213250127830733 1 2.0 89.941580559837277 1 2.0 2.610087538255573 3.9285518442662504 2.0 10.048796987217909 3.1349573758457958 2.0 25.682495308378947 1 2.0 66.941338787144531 2.5601877411473239 2.0 92.352322569084478 3.020823009716727 2.0 </DataArray>
</Points>
<Cells>
<DataArray Name="connectivity" format="ascii" type="Int32">0</DataArray>
<DataArray Name="offsets" format="ascii" type="Int32">0</DataArray>
<DataArray Name="types" format="ascii" type="UInt8">1</DataArray>
</Cells>
<PointData>
<DataArray Name="Points" NumberOfComponents="3" format="ascii" type="Float32">1.5208945052173355 1.1414248311714075 2.0 4.8993790221039379 2.3242314144815412 2.0 7.3587196196956688 1 2.0 7.9190397893562814 2.1545087573377102 2.0 12.818839792668113 1.7349978087806779 2.0 16.000807897235909 1 2.0 18.882141342362676 1.5593251432009043 2.0 22.161463113271161 1 2.0 23.479169464792534 2.1190011363545675 2.0 28.100757759708014 1 2.0 31.0 1 2.0 33.835238709596503 1 2.0 38.499912133090341 2.0922599258624688 2.0 40.109365776728296 1 2.0 43.0 1 2.0 45.957115569249687 1 2.0 47.803665028780124 1.8980078256625912 2.0 52.067975324563186 1 2.0 54.507131884504368 1 2.0 57.115124454473133 1.6427296487769649 2.0 59.052311693082999 2.3332813633086795 2.0 63.124678381316848 1.3002950622894265 2.0 68.848891333449302 1.05522955341673 2.0 69.883346528990614 2.2176104184623395 2.0 73.193965902990556 1 2.0 76.000766811652909 2.1697925643161469 2.0 77.826483654170957 2.027856151587129 2.0 82.493868502103282 1 2.0 84.300943254551711 1 2.0 85.884751204438885 1.7680853200851314 2.0 90.493479201171766 2.0566951900700623 2.0 94.082068833753326 2.7293031939895083 2.0 96.147964295220973 2.6863116748495428 2.0 102.7505837928525 1.990657184168882 2.0 2.3654014099086189 5.2727274756786677 2.0 4.2162435839741548 1 2.0 11.727417747818755 1.238847946292678 2.0 15.154587997716337 2.7324813361608919 2.0 17.378737626031555 2.2903962600934022 2.0 27.268647297118203 2.7296566937393223 2.0 35.481180455049341 1.6109946286513825 2.0 50.449525347239735 1 2.0 58.001717682215059 3.2232065067195754 2.0 61.638185891330316 2.1132725209209249 2.0 63.310063069499989 4.1948505711243378 2.0 66.10037028625888 1.2222394227487652 2.0 71.801882043442006 1 2.0 76.864893562594631 3.3397965112561705 2.0 80.91263905783741 1.10101291216951 2.0 88.299819062032526 3.1529474333514336 2.0 91.454859842808247 2.0329955010963308 2.0 94.075715480724014 1 2.0 97.755175519683775 2.0026367801957337 2.0 99.513228692627862 2.1653880892685109 2.0 2.8525728735343856 1.2922546155247463 2.0 5.8815259626176575 1 2.0 8.6597995281772189 3.6036916858441685 2.0 14.232065045970929 1 2.0 21.121385569225019 2.1726310388442109 2.0 23.850140257814928 3.493983743115336 2.0 36.873788683780027 2.7689274811707358 2.0 48.540168738024505 3.5209206550814751 2.0 56.388408716709286 3.4068654106709815 2.0 60.36955229876849 2.4406699384161126 2.0 65.069577076393031 1.4571294463455968 2.0 67.754247482196334 3.8946905850178948 2.0 70.853628410444614 1.8247656927478388 2.0 74.231413745533757 1.0305791405437013 2.0 79.700089918155385 1.8271169486638819 2.0 87.016214112596586 2.6648033442949868 2.0 88.634134321887956 1.4608189843994543 2.0 93.2961988070996 4.0894908873173348 2.0 95.520437571344061 1 2.0 101.83271345480453 3.3116939405998367 2.0 1.822776394092489 3.0891552373774429 2.0 10.162169576375653 1.2117785663471203 2.0 25.997434773569839 2.1026638767678034 2.0 62.329147559929829 2.9819089611706819 2.0 67.493726400940844 1.2606678165935608 2.0 93.086139495875997 1.6638469419455006 2.0 96.851905948462999 1.0195399671511691 2.0 100.72900410909233 1.6823001480984781 2.0 0.92003931666054062 2.4389082581407995 2.0 6.4272224570961063 2.6342850684086212 2.0 9.0516340147457566 1.7067800054685871 2.0 13.71743356918183 2.6117544812047209 2.0 19.811401713611691 2.8863306780851028 2.0 23.86588303439235 1 2.0 37.467809175308567 1 2.0 49.175618164781838 1.4785317054789748 2.0 55.592301255694437 1.9619915809122765 2.0 58.914186201561613 1 2.0 63.90089300835777 2.8805768941383931 2.0 68.614725618235184 2.6519391670699757 2.0 70.555160461956106 3.6102198225305244 2.0 75.240865666380884 1.3212879645084623 2.0 78.761658471138162 1 2.0 84.551525172355028 2.2485627114449716 2.0 89.645768727675261 2.9769970461972823 2.0 95.163337849317898 2.1298868413756389 2.0 96.932763935262827 3.7271123387517497 2.0 101.87634937124145 1 2.0 0.9587778702101567 4.6657476512223122 2.0 11.199621097397621 2.4340557587324261 2.0 27.576384932358128 4.1973853547887359 2.0 61.846018789864743 1 2.0 65.483591576113014 3.0298778541982054 2.0 92.050741323388522 1 2.0 98.467546212011897 3.2909671857197655 2.0 98.7541679752064 1 2.0 3.3758868286477184 2.5895041228737492 2.0 20.403854395600352 1 2.0 25.422483270148028 3.5253113516651169 2.0 60.392957622471187 1 2.0 64.182845086234209 1.5050012107317612 2.0 72.236845971274349 2.1603489614261684 2.0 79.374511503465826 3.1685232839160302 2.0 87.213250127830733 1 2.0 89.941580559837277 1 2.0 2.610087538255573 3.9285518442662504 2.0 10.048796987217909 3.1349573758457958 2.0 25.682495308378947 1 2.0 66.941338787144531 2.5601877411473239 2.0 92.352322569084478 3.020823009716727 2.0 </DataArray>
<DataArray Name="forces" NumberOfComponents="3" format="ascii" type="Float32">-0.30706979761083381 -0.39953002980827346 0.0 0.04828358344088729 0.31452375690613787 0.0 0.10200048061230665 -0.47337000183821321 0.0 -0.21435312798085132 0.48653469940895455 0.0 0.0024864421117512733 -0.066446658507603368 0.0 0.0076225144131190081 0.0 0.0 -0.17042798853999702 -0.17759068516170681 0.0 0.05335177866275434 -0.20515340268516669 0.0 -0.23952995731427074 0.28804513848868885 0.0 0.0 0.0 0.0 0.0 0.0 0.0 -0.046542156933676089 -0.017685385657928234 0.0 0.28886423414420137 0.22874797779998041 0.0 0.0 0.0 0.0 0.0 0.0 0.0 0.0 0.0 0.0 -0.39439919490893932 0.0927220154096077 0.0 0.17177852110109204 0.0 0.0 -0.27476308920988562 -0.24686500715996951 0.0 0.28056758800704079 -0.055725068391769945 0.0 -0.12402664834676683 0.16064778196612045 0.0 -0.21343057337743598 -0.15263832663105462 0.0 0.30427700141240388 -0.50618112044709362 0.0 -0.22545029122122079 0.054464846251467469 0.0 -0.13999386956763352 -0.27962416545088425 0.0 0.27151198933905207 0.22996613481925293 0.0 -0.17227632481609956 0.1673607044252009 0.0 0.22296074795322379 -0.018801421388904827 0.0 -0.1558950319415835 -0.58385053629084782 0.0 -0.070013215361131725 -0.2064094687869911 0.0 -0.20789867655140487 0.15628862521863612 0.0 -0.10183685804411158 0.43269729987890854 0.0 0.25206119392751258 -0.041624494431372949 0.0 0.4534494706773457 0.20286127158911843 0.0 0.21440040138382743 0.57839249005756566 0.0 0.16352340671355142 -0.39141637659636547 0.0 -0.11533181712009105 -0.75113069034443425 0.0 0.39203402293944767 0.047188093412585334 0.0 -0.12163765969752889 0.056942573199443972 0.0 0.27139841429846945 -0.14895143443267359 0.0 0.046542156933676089 0.017685385657928234 0.0 0.26397268675274788 -0.17060958542662208 0.0 -0.16523034486568106 0.2587083205291697 0.0 -0.085294452460027106 0.1307157020961485 0.0 -0.010865585273294648 0.57056851146157028 0.0 0.18610939771700163 -0.38495944022949463 0.0 -0.23812984693240255 -0.97752499040700536 0.0 0.10541619960590135 0.41861524950158685 0.0 0.12336416139985734 -0.17803434502284091 0.0 -0.062379764814054051 0.30221305485726602 0.0 0.14385720890781439 0.17934996356608607 0.0 -0.016237409263126196 -0.60599961534256752 0.0 -0.1562983736852733 0.32045536027741189 0.0 -0.01777558623468381 0.35371043730247587 0.0 -0.097001219999560184 -0.27652960785434239 0.0 -0.19233917049602686 -0.21056197003685961 0.0 -0.27845806724194644 0.24868455563202402 0.0 0.23061540603409772 -0.25109185129376543 0.0 0.39335564733759054 0.40513140284244142 0.0 -0.1620795537107679 0.36553305646482431 0.0 -0.058704580709660364 0.025789137096510206 0.0 0.01121645076265881 0.026361735733096338 0.0 -0.095358373048604186 0.14882133584045182 0.0 0.0054281072124472019 0.53516810873636567 0.0 0.14196847887650288 -0.11819625633709377 0.0 -0.04875657253625526 0.45593091043598966 0.0 -0.12946672845430174 -0.035884592152669079 0.0 0.045513315856989478 -0.17687720253733275 0.0 0.18026484862118503 0.13819939756158162 0.0 -0.12064185535827039 0.20728746736254899 0.0 -0.10929972377255465 0.1473119484663018 0.0 0.15806218102947966 0.50099873300411757 0.0 0.071520504846498717 -0.61927346053269172 0.0 -0.12183492845869386 0.18805024137111226 0.0 -0.11021733035877906 -0.07171562780225138 0.0 0.18770729693706703 -0.45032551406358867 0.0 -0.07037563650363024 0.2145239515473803 0.0 0.053200222407364189 0.37800631583691935 0.0 0.11065050615612325 -0.38261796110393531 0.0 -0.027725303490945735 0.13407208401610604 0.0 0.12432529936000852 -0.33433315404294195 0.0 0.086600693195307887 0.055968381115695492 0.0 -0.75442944244460031 -0.070153970822562473 0.0 0.081744944501684402 0.2014677806754645 0.0 -0.039344924427660397 -0.032896930606204647 0.0 -0.0050656949888892369 0.49245987782647582 0.0 -0.17748670133467676 0.36110681051655458 0.0 0.3088205216766286 -0.62378757380666805 0.0 -0.23015965343454103 -0.25453711489649061 0.0 -0.05256846370755941 0.051525834283918048 0.0 -0.076802691464198311 0.17381568414641024 0.0 -0.39083396456180131 -0.46506023260003426 0.0 0.15134515305938298 0.07519692065434519 0.0 -0.15196150793312152 0.19918788007165336 0.0 0.11928834250530085 0.28228728468088871 0.0 0.24837897509707063 -0.28417153519449873 0.0 -0.14520497474579569 -0.69593926643534587 0.0 -0.29008719636638591 0.6916934741779871 0.0 0.07764972095159263 0.33075169376108332 0.0 -0.099904272957622497 0.12962139751714685 0.0 0.13030134080084776 0.47093167439264877 0.0 0.062573295039571597 -0.62708120366025799 0.0 -0.38893099827204003 -0.092327861548180651 0.0 0.26055810311506011 0.4899935186633067 0.0 0.078180805913491885 0.33733448465708987 0.0 0.036732092616691081 -0.77196832463716814 0.0 0.0017370324672941195 0.30211133382929578 0.0 -0.17856957899799281 -0.82653988060386263 0.0 0.19444627144770271 0.44186331129996048 0.0 0.055665429291380103 -0.64787662526420198 0.0 0.25177322400193036 0.19437767061136449 0.0 -0.14544399887567691 -0.47768807600234742 0.0 0.16017720521196943 0.24638044618305355 0.0 -0.09682825459459854 -0.49054736081649342 0.0 -0.12770886218907185 -0.20214980543216843 0.0 0.44366547297491632 0.94350049416386184 0.0 -0.10103415096798725 0.44704751954348021 0.0 -0.059445412471366615 -0.35390544584623568 0.0 0.12282971804839948 -0.66662082177987847 0.0 0.48211077912024808 0.25644237641033885 0.0 0.0072017976743804502 0.19890561435147486 0.0 -0.1783028771243558 -0.64182669181091434 0.0 -0.018962526719565553 0.35344598582399678 0.0 -0.13749913975426012 0.26738828740723819 0.0 </DataArray>
<DataArray Name="radii" format="ascii" type="Float32">1 1 1 1 1 1 1 1 1 1 1 1 1 1 1 1 1 1 1 1 1 1 1 1 1 1 1 1 1 1 1 1 1 1 1 1 1 1 1 1 1 1 1 1 1 1 1 1 1 1 1 1 1 1 1 1 1 1 1 1 1 1 1 1 1 1 1 1 1 1 1 1 1 1 1 1 1 1 1 1 1 1 1 1 1 1 1 1 1 1 1 1 1 1 1 1 1 1 1 1 1 1 1 1 1 1 1 1 1 1 1 1 1 1 1 1 1 1 1 1 1 1 1 1 </DataArray>
</PointData>
<CellData/>
</Piece>
</UnstructuredGrid>
</VTKFile>
