<?xml version="1.0" ?>
<VTKFile byte_order="LittleEndian" type="UnstructuredGrid" version="0.1">
<UnstructuredGrid>
<Piece NumberOfCells="0" NumberOfPoints="17">
<Points>
<DataArray NumberOfComponents="3" format="ascii" type="Float32">1.0 1 1.0000561806793336 3.0965349411035916 1 0.96871582470174222 5.791552833574908 1.1122784155185785 1.0477669317075342 8.1915257548793434 1.1638088526306456 1.2 1.1720445358732039 1.1514218584134595 3.5734803912015485 4.0978929707524445 1 4.4088447379737383 7.1976652387843423 1 3.1681445749017394 9.0 1 4.0231736579873427 2.2651901136490014 1 5.4858019216439979 5.0547331520684704 1 6.1751600251850718 7.1953686656791636 1.1650241215515977 5.8119032424997492 0.99781310672708279 1 7.0329974558134261 3.6051104839795904 1 7.5765227205954186 8.8105897994733251 1.1638088526306456 7.6040002667913793 6.0 1 8.0 2.9174645522411526 2.1693751019161223 2.6070028211530882 5.4182479326274935 1.9410294230745802 3.251043926871886 </DataArray>
</Points>
<Cells>
<DataArray Name="connectivity" format="ascii" type="Int32">0</DataArray>
<DataArray Name="offsets" format="ascii" type="Int32">0</DataArray>
<DataArray Name="types" format="ascii" type="UInt8">1</DataArray>
</Cells>
<PointData>
<DataArray Name="Points" NumberOfComponents="3" format="ascii" type="Float32">1.0 1 1.0000561806793336 3.0965349411035916 1 0.96871582470174222 5.791552833574908 1.1122784155185785 1.0477669317075342 8.1915257548793434 1.1638088526306456 1.2 1.1720445358732039 1.1514218584134595 3.5734803912015485 4.0978929707524445 1 4.4088447379737383 7.1976652387843423 1 3.1681445749017394 9.0 1 4.0231736579873427 2.2651901136490014 1 5.4858019216439979 5.0547331520684704 1 6.1751600251850718 7.1953686656791636 1.1650241215515977 5.8119032424997492 0.99781310672708279 1 7.0329974558134261 3.6051104839795904 1 7.5765227205954186 8.8105897994733251 1.1638088526306456 7.6040002667913793 6.0 1 8.0 2.9174645522411526 2.1693751019161223 2.6070028211530882 5.4182479326274935 1.9410294230745802 3.251043926871886 </DataArray>
<DataArray Name="forces" NumberOfComponents="3" format="ascii" type="Float32">0.0 0.0 0.0 0.0023385574866667809 -0.013903803108214175 -0.019073892325837956 0.0051073180802162412 -0.031417993270024543 -0.092816164254268724 0.013043247102598077 0.0 0.0 -0.017044384503977258 -0.0075523229136407154 0.0032862554623829697 -0.044002701444625231 -0.024531131231215128 0.016242426783044779 0.0005297318813458976 -0.0048270734604113318 -0.0042977161537790295 0.009447518071349784 0.0 0.0044049662766232692 0.003559643562685468 -0.00051866329573813075 0.003956896866463268 0.011836629433850948 -0.00073519239706329464 0.0077042122486606687 0.0015878278295752488 0.00074094676698952964 -0.006727423577890591 -0.0013333439804003486 0.0 0.0016421194791308334 -0.012431765768289242 0.0 0.012290864644949414 0.0064565772624870657 0.0 0.0071080418732784537 0.0 0.0 0.0 0.01195859269362979 0.021974789317593023 0.01083123446287137 0.0071657446624533907 0.060969778311209602 0.057979338674725107 </DataArray>
<DataArray Name="radii" format="ascii" type="Float32">1 1 1.2 1.2 1.2 1 1 1 1 1 1.2 1 1 1.2 1 1 1 </DataArray>
</PointData>
<CellData/>
</Piece>
</UnstructuredGrid>
</VTKFile>
