<?xml version="1.0" ?>
<VTKFile byte_order="LittleEndian" type="UnstructuredGrid" version="0.1">
<UnstructuredGrid>
<Piece NumberOfCells="0" NumberOfPoints="19">
<Points>
<DataArray NumberOfComponents="3" format="ascii" type="Float32">1.0 1 1.0000561806793336 3.2806909609347845 1 0.96915924387296803 5.810618658858159 1.1548103901997633 1.1852237190750021 8.2732657091236952 1.1656464237529585 1.1823068735807483 1.1443266574500501 1.1061906300607762 3.5338446837469948 4.1263090125712489 1.0462374445690186 3.7391113972134598 7.2433433395978071 1 3.1251317891926673 9.0 1 4.0394187414484142 2.0135326177541217 1 5.600541355485249 4.8652888486121997 1 5.7935861058928877 7.586491899677922 1.1643821423725502 5.7040229406273104 1.0 1 7.3929453255348294 3.2542392435802769 1 7.8841482978718993 8.8004302988243008 1.1638088526306456 7.7726544734680836 6.8298864036300406 1 9.0 2.4480839775032806 2.3902588401823093 2.1664031464002744 5.8460262086540142 2.4126967123393293 3.052350544878951 2.6008884695015779 2.9225550333037957 4.4584592377345986 5.3290550594084962 1.299120318420943 7.7094759244430566 </DataArray>
</Points>
<Cells>
<DataArray Name="connectivity" format="ascii" type="Int32">0</DataArray>
<DataArray Name="offsets" format="ascii" type="Int32">0</DataArray>
<DataArray Name="types" format="ascii" type="UInt8">1</DataArray>
</Cells>
<PointData>
<DataArray Name="Points" NumberOfComponents="3" format="ascii" type="Float32">1.0 1 1.0000561806793336 3.2806909609347845 1 0.96915924387296803 5.810618658858159 1.1548103901997633 1.1852237190750021 8.2732657091236952 1.1656464237529585 1.1823068735807483 1.1443266574500501 1.1061906300607762 3.5338446837469948 4.1263090125712489 1.0462374445690186 3.7391113972134598 7.2433433395978071 1 3.1251317891926673 9.0 1 4.0394187414484142 2.0135326177541217 1 5.600541355485249 4.8652888486121997 1 5.7935861058928877 7.586491899677922 1.1643821423725502 5.7040229406273104 1.0 1 7.3929453255348294 3.2542392435802769 1 7.8841482978718993 8.8004302988243008 1.1638088526306456 7.7726544734680836 6.8298864036300406 1 9.0 2.4480839775032806 2.3902588401823093 2.1664031464002744 5.8460262086540142 2.4126967123393293 3.052350544878951 2.6008884695015779 2.9225550333037957 4.4584592377345986 5.3290550594084962 1.299120318420943 7.7094759244430566 </DataArray>
<DataArray Name="forces" NumberOfComponents="3" format="ascii" type="Float32">0.0 0.0 0.0 0.0144457849596357 -0.023859228240214293 -0.020600132284710169 -3.332627152699378e-05 -0.0060105373445333305 -0.0098698404305397301 0.0062368324453805461 0.0012274085643779367 -0.011818152034450836 -0.037187098024996597 -0.038486183738823086 0.010477310082891924 -0.010511826719124678 -0.078532009688513565 -0.010131627015995431 -0.0028888268125190075 -0.028644357263772395 -0.00038483478015040339 0.030565142950971548 -0.00053533568974102575 0.0079020875279537765 0.0 0.0 0.0 -0.0013960329127540461 -0.0046815217402168836 -0.010007011263736567 -0.0027813238462989802 0.00038292979822088734 0.0029948696507264808 0.0 0.0 0.0 0.0 0.0 0.0 0.00028741878655733798 0.0 0.00049253169409010304 0.017876701957552601 -0.003846384642203732 0.015953008189353524 0.0052105478114023336 0.042121665733880598 -0.00080377672015481336 0.019401605412385815 0.066508860319330482 -0.011202298000533972 -0.024700944099028909 0.066795159625331488 0.029459074787947931 -0.012415985905342387 0.0074071284153567826 0.0055660075269115782 </DataArray>
<DataArray Name="radii" format="ascii" type="Float32">1 1 1.2 1.2 1.2 1.2 1 1 1 1 1.2 1 1 1.2 1 1 1 1.2 1 </DataArray>
</PointData>
<CellData/>
</Piece>
</UnstructuredGrid>
</VTKFile>
