<?xml version="1.0" ?>
<VTKFile byte_order="LittleEndian" type="UnstructuredGrid" version="0.1">
<UnstructuredGrid>
<Piece NumberOfCells="0" NumberOfPoints="30">
<Points>
<DataArray NumberOfComponents="3" format="ascii" type="Float32">0.97744967573865338 1 0.9497973294794273 3.0889267795206314 1.1498697695804787 1.1851574203744015 5.1000063483644142 1 0.92825110127216193 8.815308370571012 1.1653151637173138 1.1967179983282112 1.3418088570085289 1.3621607668254427 2.9804678064183081 3.2664224439640939 1.1266530050234485 4.0580069988737746 6.7777920724484328 1 1.6196693957906347 9.0 1 3.7342121565244386 3.332181399456986 1.3604017314910124 6.4033804353566586 4.8348331276600609 1 7.478954660871131 7.8890497450378518 1.1774644002252086 7.1689483030159256 0.95730821156660117 1 7.759567003557331 2.831475502295028 1.3615652664946705 8.6999999999999993 8.8597515922012597 1.1660982417865322 8.8627900900930889 6.7867420096094033 1 9.0 2.2376917455638834 3.0479652064366416 1.5789674931927693 5.9500419573843617 2.6940225428801043 1.4472148935226461 2.8801520342051217 3.4387003513471135 4.7549643104264501 4.9911861107545956 1 9.0 6.146967044048381 2.7318580342776326 3.631378989231973 7.2345398850191502 1 5.155516654945469 1.2774934220177467 1.3290635648836655 5.5168928140252662 1.1966429513827457 2.9827567751043063 7.4537772585499837 4.848044439551793 1.1496574513786593 2.7599453802438974 5.2273009611403536 1.1476428279865027 4.9847538581648339 9.0 1 5.6267526201074567 5.2136458457346926 3.2848202736466536 5.5236034561484422 7.2413963086202555 1 3.3324120692590053 6.181024514946766 1 6.6697609206082262 8.1157562170448614 2.5143012908937332 4.51777388652122 </DataArray>
</Points>
<Cells>
<DataArray Name="connectivity" format="ascii" type="Int32">0</DataArray>
<DataArray Name="offsets" format="ascii" type="Int32">0</DataArray>
<DataArray Name="types" format="ascii" type="UInt8">1</DataArray>
</Cells>
<PointData>
<DataArray Name="Points" NumberOfComponents="3" format="ascii" type="Float32">0.97744967573865338 1 0.9497973294794273 3.0889267795206314 1.1498697695804787 1.1851574203744015 5.1000063483644142 1 0.92825110127216193 8.815308370571012 1.1653151637173138 1.1967179983282112 1.3418088570085289 1.3621607668254427 2.9804678064183081 3.2664224439640939 1.1266530050234485 4.0580069988737746 6.7777920724484328 1 1.6196693957906347 9.0 1 3.7342121565244386 3.332181399456986 1.3604017314910124 6.4033804353566586 4.8348331276600609 1 7.478954660871131 7.8890497450378518 1.1774644002252086 7.1689483030159256 0.95730821156660117 1 7.759567003557331 2.831475502295028 1.3615652664946705 8.6999999999999993 8.8597515922012597 1.1660982417865322 8.8627900900930889 6.7867420096094033 1 9.0 2.2376917455638834 3.0479652064366416 1.5789674931927693 5.9500419573843617 2.6940225428801043 1.4472148935226461 2.8801520342051217 3.4387003513471135 4.7549643104264501 4.9911861107545956 1 9.0 6.146967044048381 2.7318580342776326 3.631378989231973 7.2345398850191502 1 5.155516654945469 1.2774934220177467 1.3290635648836655 5.5168928140252662 1.1966429513827457 2.9827567751043063 7.4537772585499837 4.848044439551793 1.1496574513786593 2.7599453802438974 5.2273009611403536 1.1476428279865027 4.9847538581648339 9.0 1 5.6267526201074567 5.2136458457346926 3.2848202736466536 5.5236034561484422 7.2413963086202555 1 3.3324120692590053 6.181024514946766 1 6.6697609206082262 8.1157562170448614 2.5143012908937332 4.51777388652122 </DataArray>
<DataArray Name="forces" NumberOfComponents="3" format="ascii" type="Float32">-0.16007337794364546 -0.070720645709555302 -0.35636343667991527 0.021421214708577142 -0.098946519944365208 -0.10535998642554237 0.0066534452832167287 -0.089942086319975106 -0.50930924318406001 0.10866640141024865 0.010692542647390597 -0.023297274484005374 -0.41306957350555734 0.08107148993841462 0.0040138162920450582 0.029036780875299983 -0.2637506214062848 -0.048850109331777358 0.073514545430430511 -0.10560839628436347 -0.11426722277254733 0.23433055603217731 -0.063512048952078404 -0.095384815276144327 0.06355838433549818 0.068584985325834597 -0.045035904836704693 0.011145667501260448 -0.11169065889916792 0.031241100926518078 0.051111376645384232 0.096933844755338686 -0.016557482511053184 -0.3030474731001282 -0.25324984928642397 0.0020646397745410702 -0.0029230239004671282 0.076844333450173774 0.70984956175564484 0.42414641538265474 0.016251218889942173 0.44571517935175986 0.011765876431174743 -0.021690381310357616 0.065984721633410598 -0.024566039072496808 0.17566765494445852 -0.024408685304476419 -0.026437308765374107 0.13386660289259933 -0.0077512895752321152 -0.034292537800493787 0.35473343588164002 -0.033218688294519919 0.0055663817405762483 -0.030221467670787486 0.49424732429317136 0.071400421067062389 0.31845093506154992 -0.010936039606714198 0.013351598786841834 -0.13180640664338986 -0.0016625849085481481 -0.86961240692886177 -0.1538688529986722 0.013995628668255627 -0.023829994897503263 0.27521348870206597 0.018651361899560154 0.10728262534925299 -0.10045365976950769 -0.011230470313346522 0.048881886827078475 -0.11475445508975762 -0.041904109102352399 0.33314337393530469 -0.030597432883397838 -0.080798350841631283 -0.0087375886979908588 0.033835812544098613 0.024865350368165666 -0.063272150607252345 -0.1054910197184403 -0.019529300344544476 0.013243926392621161 -0.072799073176405799 0.013584625081069279 0.053684764780098038 0.17264964074752742 -0.0029452813855547211 </DataArray>
<DataArray Name="radii" format="ascii" type="Float32">1 1.2 1 1.2 1.4 1.2 1 1 1.4 1 1.2 1 1.4 1.2 1 1 1 1.4 1 1.2 1 1.4 1.2 1.2 1.2 1 1 1 1 1 </DataArray>
</PointData>
<CellData/>
</Piece>
</UnstructuredGrid>
</VTKFile>
