<?xml version="1.0" ?>
<VTKFile byte_order="LittleEndian" type="UnstructuredGrid" version="0.1">
<UnstructuredGrid>
<Piece NumberOfCells="0" NumberOfPoints="366">
<Points>
<DataArray NumberOfComponents="3" format="ascii" type="Float32">8.0621612870066386 5.6605391437332306 20.428031975559708 20.0 7.9642479604737968 20.0 30.0 7.9642479604737968 20.0 40.85659344977762 1.5607304961690449 19.377281310022934 50.0 7.9642479604737968 20.0 60.0 7.9642479604737968 20.0 68.873281999292089 4.2559193721285142 18.738220115831595 81.291105284689422 5.3390008058387632 18.383265938390089 90.0 7.9642479604737968 20.0 12.165432930021156 16.722123768041836 19.873905256507634 20.0 17.964247960473941 20.0 30.812875872666499 13.849185517587879 22.223751473376183 40.0 17.964247960473941 20.0 50.0 17.964247960473941 20.0 61.806473841476723 13.572131776582621 20.156334996588832 70.0 17.964247960473941 20.0 81.650900869949822 13.372355422385679 18.299168991204734 88.606529281905807 16.413779164736532 18.999337666913046 10.0 27.964247960473941 20.0 20.0 27.964247960473941 20.0 27.41904833535034 24.890457523441647 18.597210951931473 39.54213059413658 25.958448280752744 21.898125792559412 50.544437905775389 27.839800217139203 18.631501028926671 60.0 27.964247960473941 20.0 71.603140744298713 24.874636323702561 19.59232547148326 80.0 27.964247960473941 20.0 89.949932146560272 25.913304476258478 23.454818885224778 10.166633801273584 35.638531346136141 17.708514843721385 20.593932932965885 34.301355169579224 22.508733340902833 28.242059640455391 36.6622287098565 20.757347805207377 40.0 37.964247960473941 20.0 50.326785064482785 34.578890295830746 19.563745581686717 57.299419825159831 35.696117752975788 19.605600139899579 70.79587817420645 36.109491129163345 19.016615386221297 79.152618757986588 35.30042258541333 19.8101150870236 89.248322418302962 34.229836945948591 20.578646884572827 11.329855443846757 42.042545329210199 19.479199039046538 22.44166558182031 47.623493677686568 16.640397499080912 30.647203700524226 43.01367787217275 18.890662563558791 40.858546381263167 44.534505269206477 22.878682844247049 50.281471174191985 45.512607814642763 17.332234932064811 59.396239756941249 42.568407956853861 20.011919186960348 71.330514585222673 44.305313994671238 17.76253386656262 80.121455411713242 47.236627027070313 19.494846170479487 89.195726449775137 42.482371209621995 18.830425453161951 10.614745544220291 56.459854845531403 20.389909095876835 22.019415295164187 55.255595960146572 21.778682158843527 29.922119222260868 53.629248770292691 21.811396658497014 40.0 57.964247960473941 20.0 50.0 57.964247960473941 20.0 59.845014123467834 55.592997728407902 19.662737730288885 70.0 57.964247960473941 20.0 80.0 57.964247960473941 20.0 91.576687062119788 56.898383696397715 21.710312767912988 10.0 67.964247960473941 20.0 20.0 67.964247960473941 20.0 30.242064798183122 64.136063308741655 19.188065151761425 40.803173555033368 67.168007554643879 19.843912275483117 50.0 67.964247960473941 20.0 59.308411141438775 64.426083788558785 19.238990081032689 70.0 67.964247960473941 20.0 79.124882392907566 64.644422647488511 20.189785491533144 90.0 67.964247960473941 20.0 8.5804704615470833 74.079998014304479 19.220086684418611 21.013733579846594 75.78322644405614 19.08865122788465 27.84888242259192 77.340137744617664 18.025340211843549 40.0 77.964247960473941 20.0 50.326129898985407 77.086660962164871 20.616399047266178 59.666779406732878 78.0686981129369 18.503852505943641 68.902862138963243 75.930271795475363 19.381363552111544 80.0 77.964247960473941 20.0 91.308407930630239 74.277119181207041 20.588048652511439 11.198174864053108 86.488558458745317 20.474880577099334 20.447372259465627 83.015096155905937 19.505373093897202 30.0 87.964247960473941 20.0 40.0 87.964247960473941 20.0 52.458896578700291 84.230999930789309 20.059332918925193 60.0 87.964247960473941 20.0 71.026471799045638 84.814195680910217 20.360200051869167 78.198564059378086 85.96269472447085 17.527509229201424 90.730322879221603 87.520689503553669 19.897944924273954 10.381897896535209 7.9423353094223739 18.046461167264795 39.401442913872252 7.4764322777206687 21.697794609992059 70.925878702084844 6.5895041141158517 20.772602582343293 78.092233477972542 2.7390229592326003 21.043150273675455 7.12169995425789 16.666917027468926 19.713356178756506 27.443674829136114 16.041480507467661 15.979985056503939 57.731838041444327 19.385947067792905 19.379396177718988 76.486189238366123 14.986010709386683 21.986269999996672 92.744088475771804 14.829638328534397 18.356922253108593 29.085525466699686 28.103458521282793 22.056082191237188 41.765574465690094 26.570378040066039 19.122346130898091 49.646907588227677 24.232549048696267 20.397799324682342 66.516186720860304 25.354779450130067 22.283818943359382 90.092272256460433 23.204822198476229 16.408314317547106 12.909034070900018 35.049373928888699 22.975853827694451 20.18429314544975 32.96736216865169 18.628016275743239 31.619865745353312 33.164896509805985 19.317862825422537 49.45563350913369 36.99630736213728 23.194377024355457 61.201967045464677 33.993718746599932 20.016306400345254 67.377515936237842 33.143067523859692 18.532785762134651 81.645377296392056 38.602975467918199 19.817430248953748 91.679966227710807 37.782489594914217 18.034655324817333 12.997274666164417 47.113128271969359 20.126197500545093 20.054507859090265 45.186226117703434 23.451747114299565 28.873815036449876 48.952960484551063 20.380154013388832 35.994398485103346 46.315246720617182 19.809543904922471 49.038987499182504 44.729033046240609 22.888469416761414 59.009361842624116 49.004215362370026 20.798979587497396 68.611589320264613 48.634542620969718 20.857117772956769 81.011520670302332 42.877764125941603 20.919124529515585 90.342116671043584 49.737581456196082 19.729466731263997 10.067996288294903 53.453657002011646 15.774625816725397 19.442664408252117 56.771281039611594 18.01703636881378 31.617619764849525 57.314925334081778 19.560305622771327 60.467724904302813 59.3932281934214 19.877503015972213 89.99767420080164 52.58910216798423 17.059178018191954 30.676928967351795 67.950677146015877 20.370655515525058 39.378821325819601 64.878797212781834 19.929144437968599 62.028365750467344 64.614447345503578 22.453711252233678 80.754010748515782 62.787505731637992 22.396259045416929 12.394165388913761 76.231923047723939 18.387050026497732 22.583376278179269 72.914266502815849 19.173239647874862 30.298953985694187 71.106675541132219 21.356573000707986 48.080694625978943 74.735151277941966 19.342902235687049 59.095770429564652 73.766480763807266 21.169382919644278 70.786044080004359 76.861371294319284 21.896376327497244 88.90512728422614 77.412345273496143 19.22306591956805 9.8750266289210469 89.440193748818785 19.478903389658392 21.271678011441356 89.130969983039137 20.65487899266574 47.409436141562239 84.945646729745903 20.806905667412007 70.861094235950432 88.65202875164394 18.630091304054016 79.738374920441672 87.71198428392151 22.039717196296774 90.900921835545745 84.589978797466088 19.393890765158734 11.711724860968525 5.1697257020998801 21.099327005040063 41.157459486405422 5.7338526615161234 19.001327424277633 67.451483053008886 6.0192307587611307 23.584015151143088 79.655356900814255 8.4715864634282525 20.17576912931165 12.188217889718004 12.963700223440243 18.992724777307547 28.325550464916802 16.559453500257195 22.675585135317874 62.920548858736595 16.553403095422226 19.78549141559785 83.260579435005113 13.172373960263615 21.025352604331641 89.289588401617834 15.083027171276191 22.348257323302878 31.995721862569582 26.508091722691667 16.24449998821186 39.043595152529974 25.388040535921807 18.895851055520968 48.983968208782244 29.157116510549294 21.301808910262412 69.893338359438189 27.033108385375755 18.700416172215892 87.902821032412902 28.605637570358937 19.885860176095854 7.1304873785921234 34.699260104911772 17.940987301623032 20.864606846035834 38.869974708032679 18.488877958965269 28.215871127675726 34.334889365462395 16.967625618110436 50.276206804674516 35.648436505090558 16.606322843771551 59.980515428268063 36.52940817227914 17.856193870636975 71.641139527750198 37.599549432184162 22.748625361301432 80.329199178337603 33.123677094349652 22.164195098887753 87.367946227526332 36.648165192951645 21.841833427237802 4.9249833741484874 43.837398082671456 20.028488521808043 19.448204682173063 44.017572074086317 20.245350309584758 30.778246524199982 45.532173472052911 21.411185384924053 43.182409392358288 43.623910702658087 19.297314382259295 49.451957308605913 42.520214246079995 20.248083702855098 63.479648503463046 46.557306669018651 19.838769316589453 69.73752279526262 43.668303772283849 22.705480266762152 75.907326302299069 44.7825661165692 19.742833772681578 90.29623547887067 46.461352170133509 20.799287201476286 9.8684532295052403 59.039022666819932 22.266828076060296 18.628369212712887 58.005031107462763 20.903363017191239 25.684804189252432 54.002972626445072 21.367074754201951 59.644982344090522 54.978915800300818 22.184831513536007 90.590611196294219 53.892467766112702 21.239042494786105 28.595558856991133 66.734469304850023 19.136987252772705 39.351178817733256 67.830846869661713 21.921064277691674 60.714817892239139 67.215602982595655 15.539199881864851 79.13068154998173 69.151030668285998 18.979848527260859 8.6614262706512442 77.917951419336262 21.986542661701915 16.24192038034457 79.65821519333592 20.421067263528261 32.744411605077403 76.137878163891614 19.524880858975902 52.44075820576915 76.977123377970202 18.419267413157034 62.248274305012053 77.207714118262828 20.339430195275586 71.507128756750234 75.834247327353708 19.045793146250247 88.033968762290158 75.891822989407515 20.971005090234279 10.179290877411194 82.181924692060974 18.839509258198518 18.867960129378684 86.626736478068082 18.599514523534626 49.956565629269285 86.040698379990715 20.774368816934029 67.629897312528058 85.402865330918758 20.02306177534577 80.86977514962274 84.627370797432405 20.82144254322
[...]
<PointData>
<DataArray Name="Points" NumberOfComponents="3" format="ascii" type="Float32">8.0621612870066386 5.6605391437332306 20.428031975559708 20.0 7.9642479604737968 20.0 30.0 7.9642479604737968 20.0 40.85659344977762 1.5607304961690449 19.377281310022934 50.0 7.9642479604737968 20.0 60.0 7.9642479604737968 20.0 68.873281999292089 4.2559193721285142 18.738220115831595 81.291105284689422 5.3390008058387632 18.383265938390089 90.0 7.9642479604737968 20.0 12.165432930021156 16.722123768041836 19.873905256507634 20.0 17.964247960473941 20.0 30.812875872666499 13.849185517587879 22.223751473376183 40.0 17.964247960473941 20.0 50.0 17.964247960473941 20.0 61.806473841476723 13.572131776582621 20.156334996588832 70.0 17.964247960473941 20.0 81.650900869949822 13.372355422385679 18.299168991204734 88.606529281905807 16.413779164736532 18.999337666913046 10.0 27.964247960473941 20.0 20.0 27.964247960473941 20.0 27.41904833535034 24.890457523441647 18.597210951931473 39.54213059413658 25.958448280752744 21.898125792559412 50.544437905775389 27.839800217139203 18.631501028926671 60.0 27.964247960473941 20.0 71.603140744298713 24.874636323702561 19.59232547148326 80.0 27.964247960473941 20.0 89.949932146560272 25.913304476258478 23.454818885224778 10.166633801273584 35.638531346136141 17.708514843721385 20.593932932965885 34.301355169579224 22.508733340902833 28.242059640455391 36.6622287098565 20.757347805207377 40.0 37.964247960473941 20.0 50.326785064482785 34.578890295830746 19.563745581686717 57.299419825159831 35.696117752975788 19.605600139899579 70.79587817420645 36.109491129163345 19.016615386221297 79.152618757986588 35.30042258541333 19.8101150870236 89.248322418302962 34.229836945948591 20.578646884572827 11.329855443846757 42.042545329210199 19.479199039046538 22.44166558182031 47.623493677686568 16.640397499080912 30.647203700524226 43.01367787217275 18.890662563558791 40.858546381263167 44.534505269206477 22.878682844247049 50.281471174191985 45.512607814642763 17.332234932064811 59.396239756941249 42.568407956853861 20.011919186960348 71.330514585222673 44.305313994671238 17.76253386656262 80.121455411713242 47.236627027070313 19.494846170479487 89.195726449775137 42.482371209621995 18.830425453161951 10.614745544220291 56.459854845531403 20.389909095876835 22.019415295164187 55.255595960146572 21.778682158843527 29.922119222260868 53.629248770292691 21.811396658497014 40.0 57.964247960473941 20.0 50.0 57.964247960473941 20.0 59.845014123467834 55.592997728407902 19.662737730288885 70.0 57.964247960473941 20.0 80.0 57.964247960473941 20.0 91.576687062119788 56.898383696397715 21.710312767912988 10.0 67.964247960473941 20.0 20.0 67.964247960473941 20.0 30.242064798183122 64.136063308741655 19.188065151761425 40.803173555033368 67.168007554643879 19.843912275483117 50.0 67.964247960473941 20.0 59.308411141438775 64.426083788558785 19.238990081032689 70.0 67.964247960473941 20.0 79.124882392907566 64.644422647488511 20.189785491533144 90.0 67.964247960473941 20.0 8.5804704615470833 74.079998014304479 19.220086684418611 21.013733579846594 75.78322644405614 19.08865122788465 27.84888242259192 77.340137744617664 18.025340211843549 40.0 77.964247960473941 20.0 50.326129898985407 77.086660962164871 20.616399047266178 59.666779406732878 78.0686981129369 18.503852505943641 68.902862138963243 75.930271795475363 19.381363552111544 80.0 77.964247960473941 20.0 91.308407930630239 74.277119181207041 20.588048652511439 11.198174864053108 86.488558458745317 20.474880577099334 20.447372259465627 83.015096155905937 19.505373093897202 30.0 87.964247960473941 20.0 40.0 87.964247960473941 20.0 52.458896578700291 84.230999930789309 20.059332918925193 60.0 87.964247960473941 20.0 71.026471799045638 84.814195680910217 20.360200051869167 78.198564059378086 85.96269472447085 17.527509229201424 90.730322879221603 87.520689503553669 19.897944924273954 10.381897896535209 7.9423353094223739 18.046461167264795 39.401442913872252 7.4764322777206687 21.697794609992059 70.925878702084844 6.5895041141158517 20.772602582343293 78.092233477972542 2.7390229592326003 21.043150273675455 7.12169995425789 16.666917027468926 19.713356178756506 27.443674829136114 16.041480507467661 15.979985056503939 57.731838041444327 19.385947067792905 19.379396177718988 76.486189238366123 14.986010709386683 21.986269999996672 92.744088475771804 14.829638328534397 18.356922253108593 29.085525466699686 28.103458521282793 22.056082191237188 41.765574465690094 26.570378040066039 19.122346130898091 49.646907588227677 24.232549048696267 20.397799324682342 66.516186720860304 25.354779450130067 22.283818943359382 90.092272256460433 23.204822198476229 16.408314317547106 12.909034070900018 35.049373928888699 22.975853827694451 20.18429314544975 32.96736216865169 18.628016275743239 31.619865745353312 33.164896509805985 19.317862825422537 49.45563350913369 36.99630736213728 23.194377024355457 61.201967045464677 33.993718746599932 20.016306400345254 67.377515936237842 33.143067523859692 18.532785762134651 81.645377296392056 38.602975467918199 19.817430248953748 91.679966227710807 37.782489594914217 18.034655324817333 12.997274666164417 47.113128271969359 20.126197500545093 20.054507859090265 45.186226117703434 23.451747114299565 28.873815036449876 48.952960484551063 20.380154013388832 35.994398485103346 46.315246720617182 19.809543904922471 49.038987499182504 44.729033046240609 22.888469416761414 59.009361842624116 49.004215362370026 20.798979587497396 68.611589320264613 48.634542620969718 20.857117772956769 81.011520670302332 42.877764125941603 20.919124529515585 90.342116671043584 49.737581456196082 19.729466731263997 10.067996288294903 53.453657002011646 15.774625816725397 19.442664408252117 56.771281039611594 18.01703636881378 31.617619764849525 57.314925334081778 19.560305622771327 60.467724904302813 59.3932281934214 19.877503015972213 89.99767420080164 52.58910216798423 17.059178018191954 30.676928967351795 67.950677146015877 20.370655515525058 39.378821325819601 64.878797212781834 19.929144437968599 62.028365750467344 64.614447345503578 22.453711252233678 80.754010748515782 62.787505731637992 22.396259045416929 12.394165388913761 76.231923047723939 18.387050026497732 22.583376278179269 72.914266502815849 19.173239647874862 30.298953985694187 71.106675541132219 21.356573000707986 48.080694625978943 74.735151277941966 19.342902235687049 59.095770429564652 73.766480763807266 21.169382919644278 70.786044080004359 76.861371294319284 21.896376327497244 88.90512728422614 77.412345273496143 19.22306591956805 9.8750266289210469 89.440193748818785 19.478903389658392 21.271678011441356 89.130969983039137 20.65487899266574 47.409436141562239 84.945646729745903 20.806905667412007 70.861094235950432 88.65202875164394 18.630091304054016 79.738374920441672 87.71198428392151 22.039717196296774 90.900921835545745 84.589978797466088 19.393890765158734 11.711724860968525 5.1697257020998801 21.099327005040063 41.157459486405422 5.7338526615161234 19.001327424277633 67.451483053008886 6.0192307587611307 23.584015151143088 79.655356900814255 8.4715864634282525 20.17576912931165 12.188217889718004 12.963700223440243 18.992724777307547 28.325550464916802 16.559453500257195 22.675585135317874 62.920548858736595 16.553403095422226 19.78549141559785 83.260579435005113 13.172373960263615 21.025352604331641 89.289588401617834 15.083027171276191 22.348257323302878 31.995721862569582 26.508091722691667 16.24449998821186 39.043595152529974 25.388040535921807 18.895851055520968 48.983968208782244 29.157116510549294 21.301808910262412 69.893338359438189 27.033108385375755 18.700416172215892 87.902821032412902 28.605637570358937 19.885860176095854 7.1304873785921234 34.699260104911772 17.940987301623032 20.864606846035834 38.869974708032679 18.488877958965269 28.215871127675726 34.334889365462395 16.967625618110436 50.276206804674516 35.648436505090558 16.606322843771551 59.980515428268063 36.52940817227914 17.856193870636975 71.641139527750198 37.599549432184162 22.748625361301432 80.329199178337603 33.123677094349652 22.164195098887753 87.367946227526332 36.648165192951645 21.841833427237802 4.9249833741484874 43.837398082671456 20.028488521808043 19.448204682173063 44.017572074086317 20.245350309584758 30.778246524199982 45.532173472052911 21.411185384924053 43.182409392358288 43.623910702658087 19.297314382259295 49.451957308605913 42.520214246079995 20.248083702855098 63.479648503463046 46.557306669018651 19.838769316589453 69.73752279526262 43.668303772283849 22.705480266762152 75.907326302299069 44.7825661165692 19.742833772681578 90.29623547887067 46.461352170133509 20.799287201476286 9.8684532295052403 59.039022666819932 22.266828076060296 18.628369212712887 58.005031107462763 20.903363017191239 25.684804189252432 54.002972626445072 21.367074754201951 59.644982344090522 54.978915800300818 22.184831513536007 90.590611196294219 53.892467766112702 21.239042494786105 28.595558856991133 66.734469304850023 19.136987252772705 39.351178817733256 67.830846869661713 21.921064277691674 60.714817892239139 67.215602982595655 15.539199881864851 79.13068154998173 69.151030668285998 18.979848527260859 8.6614262706512442 77.917951419336262 21.986542661701915 16.24192038034457 79.65821519333592 20.421067263528261 32.744411605077403 76.137878163891614 19.524880858975902 52.44075820576915 76.977123377970202 18.419267413157034 62.248274305012053 77.207714118262828 20.339430195275586 71.507128756750234 75.834247327353708 19.045793146250247 88.033968762290158 75.891822989407515 20.971005090234279 10.179290877411194 82.181924692060974 18.839509258198518 18.867960129378684 86.626736478068082 18.599514523534626 49.956565629269285 86.040698379990715 20.774368816934029 67.629897312528058 85.402865330918758 20.02306177534577 80.86977514962274 84.627370797432405 20.821442543221554 87.636226111112009 85.552802498698597 20.920202263307381 35.806660693650286 7.4479993421010988 18.970976516500723 75.19404082827171 6.0232196248959786 17.614096929528479 80.701085262268819 4.0832949391908784 22.246847892703059 8.5543722865976601 17.391501524093744 22.383493778170433 31.425030813447488 17.288950581687146 19.046066342571947 57.782847685599762 15.267921138045487 21.019479835534131 78.227943982113644 17.991937527295622 18.044337085754865 92.405861517527569 16.971080592553449 20.406546137552159 31.124424201434923 22.506134178837002 23.038319341382604 68.630321261097919 24.056320333213066 18.705400976888846 91.864795537609268 23.115555153942474 19.595494542599955 9.6290761485193901 35.556701184376124 22.140839008741739 16.689138497873255 34.250827962398425 17.080298990161666 34.891777247866962 36.804510778717933 20.601188161054285 52.91925084586444 37.500163018798652 19.473276689075732 63.648437060014217 35.007542773419466 23.85676999223881 66.37633150796087 36.196326728778438 20.09559796770186 9.7422444617638817 47.508357050981708 20.26378887066009 17.863591645481844 42.664295559902456 22.840920353510061 26.578415499570514 47.013428953453008 19.728893955935145 39.272682032766085 45.031491573946226 17.400926924170083 51.321587518441412 48.771575288837226 23.517909228014673 84.643792546934108 43.311198447194265 18.10205997402117 8.7253066433535373 52.263479674364952 19.743565972273394 32.369839359314412 54.925104360252959 15.722476238551714 89.796989571087281 56.822697381839674 18.394308923503957 29.433478475331931 67.31774962963911 23.917964929731003 59.05300352861353 66.863911316845076 22.529149881680993 83.866139683113971 62.059781615750865 17.170126573859655 12.853384681298106 74.160753510722202 22.382804801754798 19.474787269121567 71.697927603348148 21.036165205010022 32.382951342878826 74.809455063507357 22.614117707864544 47.922970983110247 70.149416280122324 22.042347896815802 59.383864050369361 71.266185294226915 21.364990599211577 92.082672380486954 77.434333398539607 18.314916134929522 49.248818072375272 88.275449614558582 19.208306731009284 10.075843869641698 6.2206774108213168 22.001833837935404 40.599911722278165 3.2827812868435582 21.404172991539788 66.316444483115276 4.0325552430724958 19.185716426336089 80.051750268630713 7.1025415771473339 16.800744430707656 9.6352675311402027 14.966463493092467 20.83662523928486 32.243978670018336 12.228239457260239 20.812876908266269 61.053943851011205 10.454734996122216 20.39276423523571 79.2153932029168 15.134836138703788 17.007470887542155 87.087235697150192 16.454358661703282 21.833144852663064 29.738839368575121 23.312995070547515 20.333841380425017 37.908640732207992 28.468349948411021 20.726602276822412 51.005362831736782 25.625780072717681 19.877462571796656 74.490901843842849 25.823766003067497 20.641301897324375 90.113181406730774 27.334753851158396 20.567877646332278 10.681149897924877 37.205959205397129 20.457994415397813 18.934836070693166 36.352931170445252 21.922145790411324 28.186164781890678 34.783597736108632 22.521841983881963 47.410398686439422 33.226580127755952 19.484306538725004 58.887970984659518 37.841643856480118 21.398247849600459 73.190687307557454 36.105077011234044 21.189992683713367 76.791189001253201 37.071207462238831 18.534053457523576 91.534597050125868 36.486104766645106 20.329730931129813 10.633108514357005 44.93140321032535 20.693425827774078 21.327709358932143 44.830599911843805 17.776470121231071 33.756988371032975 42.241750848300164 19.162196780824399 40.023305420280266 46.125714233925933 20.920408197572836 52.405682161384767 46.027604551078852 18.769144326774356 58.606302937514606 45.040482116930619 19.44481059963497 70.972233533248257 47.29822682556884 18.882565264652271 80.309205859682507 49.424693363527204 21.060435014971684 92.062793759424025 43.181667311688685 20.107638380531206 12.080655063397142 54.748776040974398 21.6383952641809 19.311529975333258 55.081881468999825 20.044328445347006 31.981448680609496 53.573205787293666 20.212638528059628 59.944429709512072 53.457771862183257 17.275178490513206 89.723076948806224 59.505000074126855 22.086760120485529 30.365084070515525 61.139340704113479 18.028374353398586 41.259688874001895 67.291505802614822 17.284889565436668 56.684619844732914 65.875650321758087 20.374387606604724 76.667595028300482 66.635051726333046 20.772449662787025 7.0226184341339657 75.386834705695932 21.700231662817444 20.481118805478388 76.389213507345033 21.726593399583141 27.903712643830428 75.689273268973338 20.009119204581555 49.751623759326314 79.667070054315857 19.944914021708772 60.157764222368208 75.66819206168627 17.72858952071789 67.295111243312832 77.293556574911605 17.768070274037079 89.736610956279208 72.123580435139232 22.38584953104824 8.5732016031265577 84.812936529768407 21.276235298065302 18.468598987077065 82.644514764580123 21.155738984487236 51.882227677630702 83.87911920536844 16.915450638705636 69.940428435563973 85.993712927440541 22.464360356323649 81.154992675993412 84.698421577144785 17.625260535452362 90.827014326527461 89.993653708619831 21.024539114654797 40.401803765457792 9.9473409235541261 22.233646208477595 72.804748844955384 7.0538583193192661 18.144651243310232 76.686372416490286 2.6977972752930155 23.933649945119775 4.9198443503279767 14.311848124197244 19.811481048486421 29.304515764355298 14.659216699367807 17.126197048389102 55.952708752712162 16.76292289955931 19.952939517553819 77.372098316251709 17.271977657899875 23.128527965035882 91.195167784593806 14.014107538740483 16.440388482037381 31.030290568988242 25.732141112778717 23.046617795185842 66.621725342568467 27.513417304618557 20.674256578864046 91.957862165481373 24.693825591860048 15.233014391813859 13.068800185264893 36.194484658502454 20.617125573012416 22.29652606993772 32.592982038746783 17.153373993408078 30.952335187033491 32.702631471797275 22.429305713634704 48.250141079071213 35.081913904280206 24.527479387439204 62.63261929474217 31.615172579917441 18.403988248121362 69.699130365782565 34.189195928292364 17.740189438813594 12.188266981101668 49.916798023026693 18.775158881268222 18.50386205458933 47.392756844322413 23.54371071223963 29.750226499748383 47.458336667766012 17.671212254775348 38.221642026764535 45.298800305881272 20.682462066768071 47.545046533321063 46.029420318258062 20.355191660265284 78.59701902768488 41.505509872954399 19.298179452957442 8.7106849480961124 55.094386651179647 18.187435454614352 28.817763619531302 57.183611700851479 17.984258303204513 87.482454170984767 53.253480512363055 16.748778592728428 33.083369238419429 65.820509936068163 20.479263699883347 60.410630283576666 62.670857576934317 22.949782705643088 83.113961758062658 62.384639543141851 20.26435613633808 13.200195521300151 75.992057911444931 15.269741668490727 22.202333545885203 70.476130574855105 18.58913800631349 29.668809583716719 72.18250484153242 19.02918403604092 49.546605026241608 71.874110505079571 19.265991555786407 57.901008374797755 76.692272599135777 22.238036707729673 89.294896377634032 78.964747023235347 16.23535371522529 45.336789061986018 85.869386705390156 22.141991551604644 42.345139693777163 7.037860413189879 17.021515106381148 69.94810633682296 4.1975939397944924 22.675488138057293 14.045862301564927 11.631391456167449 17.782053733420536 29.238285946764297 17.667341079008409 20.49823318288092 59.853790532155443 17.018013448383662 18.925043336815673 83.967284328877014 15.864751285918445 22.635063045725442 30.601323645706596 23.746897641265303 17.123034970877555 5.3652098393013681 32.344257954780062 19.348720450959867 21.222788630684349 37.455587472205657 21.356524693450673 28.596953203115543 37.526893205289454 16.88856363881645 81.196958208878584 31.676156099241958 19.427035970905038 7.4995755471088881 45.6402098269078 20.640662796631638 17.480225614345251 44.915547442502273 17.86230847711812 29.182993321845121 44.622865849514611 24.051012978959765 42.431798879645051 45.972839769948024 17.233463866038008 50.264012225887647 40.067782321548584 18.333271094498922 60.62213756981469 46.307543174070446 18.404534849144845 69.852814879597403 43.477722947322867 20.109254079299127 78.121082591570215 45.695392968549505 21.889084710544672 87.578820164530711 46.584167446722944 22.514202148489399 27.61841664877992 56.001631631583898 22.981654543434928 87.487233870056826 53.078698345298456 21.313223762586141 62.037019680869101 65.510668505294419 17.923484587842403 77.838422937974414 71.083313654901943 20.318267078400922 19.010482523056584 77.86107779076292 20.24009477444762 31.267846445419199 78.844935207778022 18.61276225446737 8.6219697200914069 81.171040986696468 20.648637080025701 18.722313743698784 88.277870363057687 20.690851611715718 83.105766744139402 83.918860743960622 21.943313426724252 88.274220119591789 83.534925338139146 19.451880868053667 36.559333142373823 5.274096275685908 21.217750314866986 83.279550359888759 6.100575266493359 22.05870564690694 32.559354440650338 15.495610980743006 17.537650272668188 78.880141041673809 17.018075776418272 20.357254142602709 34.153557456101758 23.082618349544518 23.949177976906835 68.618142330397802 21.68469359034 19.696390133920783 89.81038311708113 22.068156940403782 21.836634753947248 16.892659685480229 34.918294088866958 19.605759385471835 34.142213824349327 34.509558555950775 21.486769252579986 51.693744753161177 37.057585353590916 21.801914865825879 61.417956108343425 34.867205822896331 22.468007965712438 17.534447377865742 40.157252822398888 22.390963656586905 38.774846992964726 46.133773207885469 14.421413821180224 48.51418869317466 49.622852478188079 22.201018252632167 83.770140774032342 41.137988088127521 20.305296723263663 6.4973841592741648 51.883389576606028 22.043944831745108 34.753408347074284 57.073847823345474 15.927081391635944 27.358688009770709 64.898965294652299 23.487744378036009 80.948569391090359 60.921875295035278 17.923387671210804 11.690972983835467 73.281704263572593 19.515977925278833 16.91524249361354 73.515233462460913 21.733655574023146 29.335155994067886 75.11355124904766 23.593317319776379 49.512782907383894 71.940603949889976 23.2347422021