<?xml version="1.0" ?>
<VTKFile byte_order="LittleEndian" type="UnstructuredGrid" version="0.1">
<UnstructuredGrid>
<Piece NumberOfCells="0" NumberOfPoints="593">
<Points>
<DataArray NumberOfComponents="3" format="ascii" type="Float32">8.4321404453446753 2.0773926078342568 20.295229074749876 20.0 6.6070799341229947 20.0 30.0 6.6070799341229947 20.0 39.494454091233216 1.6994130770107672 18.264125502277231 50.0 6.6070799341229947 20.0 59.027762985960258 5.5217904918298748 19.496399644141871 68.443254236477856 1.4960061408124203 17.605151895178523 81.292831252896946 2.504123842723915 18.775306004371966 90.0 6.6070799341229947 20.0 12.866725025488261 11.812554904131492 19.652776967378188 20.0 16.607079934123234 20.0 30.400315316504837 8.2328193584889675 22.55350888567521 40.0 16.607079934123234 20.0 50.0 16.607079934123234 20.0 61.888071313933473 8.3410927732732159 20.708230633470645 70.0 16.607079934123234 20.0 82.319550140008985 7.6825437788712403 17.250852162287455 88.950125404778547 11.324109393405811 18.74716622019929 10.0 26.607079934123234 20.0 19.926438064611641 25.995364481625852 20.420079243502094 26.781770012603882 20.424202964906211 18.386911996880272 39.827455394445792 20.237414716008111 22.54387694711885 50.101598326473123 23.206661583538445 17.943296695228245 59.961364496082169 26.514206545534456 19.992979329440452 72.266174647541831 19.778314010360155 19.391726286316853 79.424015624473441 26.036870891061312 20.391434551928796 89.484436450997251 20.563064100726681 23.791380736368133 11.403688698865581 29.885711331983746 17.037269397246455 20.739492558246898 28.872082236831588 22.531090534535426 28.395046523624991 31.418370471943355 20.348604151993694 40.0 36.607079934123234 20.0 50.466307164037133 29.023222162855362 19.362075187901389 57.419033322243138 29.83660597606875 18.950107748421207 70.234406290251187 32.334157877813311 19.569390482084547 79.985536854999182 30.195598034849674 19.348700385866124 88.878177708081765 29.517309207614009 21.244105946530095 11.51377562582603 36.141272980424972 18.823913096458902 22.850730494456506 43.855712221597585 16.223814635539316 30.129024416231381 37.134213938147781 18.588346575337685 41.146602509638477 39.171615787772602 23.292927695120191 50.646102310434891 40.140350867833455 17.404912169363243 59.378249298511037 37.223387109446335 20.49126934483391 70.957469727398589 38.746568958362076 17.447052718842627 80.685878885874075 42.425726290122093 19.489644128690038 89.140652785999691 37.192992434071861 18.397829907739638 10.6649505920784 52.686855403183372 20.66366267355977 21.943382965739495 50.831031767393789 22.172110385458748 30.00727289778759 48.768670077734342 21.580354180855533 40.0 56.607079934123234 20.0 50.0 56.607079934123234 20.0 59.439594377040876 51.320229023893319 19.734099719634575 70.0 56.607079934123234 20.0 79.836470220312961 56.331625305534338 20.525578802301116 93.163754875558908 52.696591537535383 21.880592257777717 9.6550030557596784 66.386917221936855 20.130622912291248 20.006331006208701 65.369026383325433 19.107693151339664 30.020737310829908 59.11070203618759 19.697284845650533 41.326495704233785 62.652036644947778 20.266836308144843 50.26541136746976 65.292250957448999 20.675143103061181 59.042999196282899 58.714660818168589 19.008633251923488 70.0 66.607079934123234 20.0 79.538014771063857 59.749827111754954 19.210136429215392 90.040944212075019 66.54516003419478 19.802867478965432 8.3244880432179666 68.452823572893692 18.739381447341064 21.385935174069679 71.240066700400362 17.660910394532845 27.895776414657377 72.642034542069595 17.293484382054608 40.0 76.607079934123234 20.0 50.658304251732361 72.565255139499257 21.185510883775009 58.954191793188315 74.380855168872301 18.823740330549416 69.087411110836911 71.105374614061532 19.613300644065387 80.0 76.607079934123234 20.0 91.497977306036105 68.966309805011946 20.159520326250469 11.697136674446377 81.544053178736633 19.809919999280293 20.646865448824851 78.062689768235373 19.801579928366014 30.0 86.607079934123234 20.0 40.0 86.607079934123234 20.0 52.314240866899304 79.476717601045607 20.890518462570551 60.0 86.607079934123234 20.0 71.46145135677088 79.364142110481879 20.387369280615779 77.413316151058737 80.636160020558904 17.617001656840735 90.276239143996975 84.457820712109068 20.317428000658015 9.9923805032452453 6.2030911575884407 17.850861077790515 38.949073864611407 4.4306423682516565 22.511731268677273 71.301216730124466 3.7592236386164286 20.438111013898919 77.646185203384718 1.5251785429677152 20.013234129110266 7.153440468128764 12.701944027447846 18.996387286604271 27.290540621928859 11.125670121812002 16.112158520963362 57.804313647904671 15.434100139768478 19.035987028018305 76.916122471573388 10.059334607002677 21.862785214572789 92.674336664915415 9.8162704207767995 18.192522192243782 28.402927728590932 23.258764571923201 21.405894861941132 41.765574465690094 25.213210013715333 19.122346130898091 49.493625554515653 22.701602500231182 20.612708338381626 65.957211027876539 20.038103086651166 22.567744135786914 89.433041233012986 18.378417851333158 16.043120371905193 12.569843464429425 29.620728780747235 22.77364271093267 20.169472163419712 27.855676065218375 18.340728146739927 31.681936781108611 27.64508312747521 18.855445687149764 49.899468708566111 32.724284425313378 22.421289814629489 61.643989416292598 29.139858652004165 20.013152027381452 67.744458920118277 27.876477231419056 18.458623770537734 81.381562694717843 36.528714107987639 19.244634129356591 91.691230826751024 36.380436667879394 17.762246122128211 14.502857546145236 42.313946873483005 20.267367124605656 20.26071203843447 40.799887787013915 24.563040616026928 29.345629328904195 44.064255018731714 20.789722754782225 35.889419950354757 41.042288574961603 19.673457640142228 49.049880575132335 40.671694902016569 24.691050478670846 59.009361842624116 47.64704733601932 20.798979587497396 68.611589320264613 47.277374594619012 20.857117772956769 81.667456418206569 38.770888323578163 22.051989142299828 89.864719935966406 47.170088526129135 19.474722492206006 10.144046499311846 47.907389453632881 14.912193191605805 19.447608375622718 55.460531072991763 17.96510504711885 32.460249271632605 53.247084376757094 19.702238803564832 61.037526870535331 57.255977349083004 20.217529683546793 90.427602632635839 48.042223783674622 16.386133033794287 31.161075456774988 63.55592921383181 20.161461377161199 38.523616411707856 62.863620531298771 19.927323518883163 63.0710654683038 60.187306853249709 22.028379752793064 80.572163725696896 57.846021699953127 23.272342994271405 12.795181644982403 71.891530935526234 18.859316990336062 23.720488755753642 67.816457619186707 19.735344333074938 29.947118023833777 67.089375162107558 21.266661176119797 46.643574272502086 70.019651217394696 19.115938019600659 59.111883641819603 69.4563318013399 19.671914253641905 70.786044080004359 75.504203267968578 21.896376327497244 89.582368146258631 72.592094613857114 19.11662403688532 9.8750266289210469 88.083025722468079 19.478903389658392 21.271678011441356 87.77380195668843 20.65487899266574 47.353400596439336 80.066476296879145 20.353634527731089 70.861094235950432 87.294860725293233 18.630091304054016 79.738374920441672 86.354816257570803 22.039717196296774 91.061923753290557 81.501990476786332 18.774316630176177 11.711724860968525 3.812557675749078 21.099327005040063 43.116538335419307 3.7743974531494895 19.398412376750034 66.545180194984084 2.5469337599950301 23.328029927277136 79.655356900814255 7.1144184370774504 20.17576912931165 12.47497484959373 8.0223638358522908 19.506634007853201 28.022565176579985 12.106113888163845 23.222801366109024 64.169230525136072 12.451681226910443 20.14777876338804 83.733229890639819 7.0637230953621284 21.278223762548905 90.095890221107709 13.435344977459017 22.475856761435892 31.959558277578921 22.333177430385529 15.918708905101996 39.422809703219158 23.778671166294664 18.43060546708567 48.982658938649337 27.657564473514316 21.48276434703773 69.893338359438189 25.675940359025049 18.700416172215892 87.493481727931766 26.609501830562117 19.598759733679319 6.8849046063618973 30.502177387619046 17.600466822312374 20.279620868800688 34.036189234228203 17.559005469913131 27.84283148421704 28.978126628235284 16.4952463363277 50.283304485963377 32.68713399230132 15.493978999621156 59.980515428268063 35.172240145928434 17.856193870636975 71.672845770613563 36.192282074538539 22.768292863352237 80.824073670476793 27.9622187315079 23.244216278295145 87.381459336380487 35.289580854791517 21.84712830003663 4.6036210161940652 37.742125898736006 19.729598193876932 19.398887595934834 38.801650581701359 20.178861061659685 31.442740304658269 40.430209770256205 20.846183728583174 43.271067371473286 37.82733665204794 19.150454605328029 49.032057713465633 37.281560402329127 20.715536339496715 64.385364672034328 41.868799256279374 20.133842678985587 69.982170954677059 38.470850975745968 22.561409404314873 75.456863142505512 39.267421566013894 18.911005685183394 91.148181585679424 41.61853126848284 20.323855455541143 9.8684532295052403 57.681854640469226 22.266828076060296 18.628369212712887 56.647863081112057 20.903363017191239 25.326647236290487 48.39093442949099 21.07836022680506 59.606852776461551 53.555328602589547 22.646142096261645 91.16580873249714 47.903359259076957 22.092633465343322 28.06662453801658 65.209165069705662 18.837214749857043 39.250806563856457 66.525777979266934 22.055236560373263 60.114383761282618 62.077906241583086 15.37773333005007 78.783958976195891 64.017774559332636 18.681328292521311 8.6614262706512442 76.560783392985556 21.986542661701915 15.065376960568535 75.010244789773168 20.714488467613023 33.748604735048673 70.645559701244864 19.045801547017078 52.44075820576915 75.619955351619495 18.419267413157034 62.251531611060486 75.850745841169697 20.341109730675093 71.680975332128341 74.485517045931829 19.021481308835739 87.528251172844463 74.107766468792107 21.844449488387777 10.989477297919898 76.9602011
[...]
<PointData>
<DataArray Name="Points" NumberOfComponents="3" format="ascii" type="Float32">8.4321404453446753 2.0773926078342568 20.295229074749876 20.0 6.6070799341229947 20.0 30.0 6.6070799341229947 20.0 39.494454091233216 1.6994130770107672 18.264125502277231 50.0 6.6070799341229947 20.0 59.027762985960258 5.5217904918298748 19.496399644141871 68.443254236477856 1.4960061408124203 17.605151895178523 81.292831252896946 2.504123842723915 18.775306004371966 90.0 6.6070799341229947 20.0 12.866725025488261 11.812554904131492 19.652776967378188 20.0 16.607079934123234 20.0 30.400315316504837 8.2328193584889675 22.55350888567521 40.0 16.607079934123234 20.0 50.0 16.607079934123234 20.0 61.888071313933473 8.3410927732732159 20.708230633470645 70.0 16.607079934123234 20.0 82.319550140008985 7.6825437788712403 17.250852162287455 88.950125404778547 11.324109393405811 18.74716622019929 10.0 26.607079934123234 20.0 19.926438064611641 25.995364481625852 20.420079243502094 26.781770012603882 20.424202964906211 18.386911996880272 39.827455394445792 20.237414716008111 22.54387694711885 50.101598326473123 23.206661583538445 17.943296695228245 59.961364496082169 26.514206545534456 19.992979329440452 72.266174647541831 19.778314010360155 19.391726286316853 79.424015624473441 26.036870891061312 20.391434551928796 89.484436450997251 20.563064100726681 23.791380736368133 11.403688698865581 29.885711331983746 17.037269397246455 20.739492558246898 28.872082236831588 22.531090534535426 28.395046523624991 31.418370471943355 20.348604151993694 40.0 36.607079934123234 20.0 50.466307164037133 29.023222162855362 19.362075187901389 57.419033322243138 29.83660597606875 18.950107748421207 70.234406290251187 32.334157877813311 19.569390482084547 79.985536854999182 30.195598034849674 19.348700385866124 88.878177708081765 29.517309207614009 21.244105946530095 11.51377562582603 36.141272980424972 18.823913096458902 22.850730494456506 43.855712221597585 16.223814635539316 30.129024416231381 37.134213938147781 18.588346575337685 41.146602509638477 39.171615787772602 23.292927695120191 50.646102310434891 40.140350867833455 17.404912169363243 59.378249298511037 37.223387109446335 20.49126934483391 70.957469727398589 38.746568958362076 17.447052718842627 80.685878885874075 42.425726290122093 19.489644128690038 89.140652785999691 37.192992434071861 18.397829907739638 10.6649505920784 52.686855403183372 20.66366267355977 21.943382965739495 50.831031767393789 22.172110385458748 30.00727289778759 48.768670077734342 21.580354180855533 40.0 56.607079934123234 20.0 50.0 56.607079934123234 20.0 59.439594377040876 51.320229023893319 19.734099719634575 70.0 56.607079934123234 20.0 79.836470220312961 56.331625305534338 20.525578802301116 93.163754875558908 52.696591537535383 21.880592257777717 9.6550030557596784 66.386917221936855 20.130622912291248 20.006331006208701 65.369026383325433 19.107693151339664 30.020737310829908 59.11070203618759 19.697284845650533 41.326495704233785 62.652036644947778 20.266836308144843 50.26541136746976 65.292250957448999 20.675143103061181 59.042999196282899 58.714660818168589 19.008633251923488 70.0 66.607079934123234 20.0 79.538014771063857 59.749827111754954 19.210136429215392 90.040944212075019 66.54516003419478 19.802867478965432 8.3244880432179666 68.452823572893692 18.739381447341064 21.385935174069679 71.240066700400362 17.660910394532845 27.895776414657377 72.642034542069595 17.293484382054608 40.0 76.607079934123234 20.0 50.658304251732361 72.565255139499257 21.185510883775009 58.954191793188315 74.380855168872301 18.823740330549416 69.087411110836911 71.105374614061532 19.613300644065387 80.0 76.607079934123234 20.0 91.497977306036105 68.966309805011946 20.159520326250469 11.697136674446377 81.544053178736633 19.809919999280293 20.646865448824851 78.062689768235373 19.801579928366014 30.0 86.607079934123234 20.0 40.0 86.607079934123234 20.0 52.314240866899304 79.476717601045607 20.890518462570551 60.0 86.607079934123234 20.0 71.46145135677088 79.364142110481879 20.387369280615779 77.413316151058737 80.636160020558904 17.617001656840735 90.276239143996975 84.457820712109068 20.317428000658015 9.9923805032452453 6.2030911575884407 17.850861077790515 38.949073864611407 4.4306423682516565 22.511731268677273 71.301216730124466 3.7592236386164286 20.438111013898919 77.646185203384718 1.5251785429677152 20.013234129110266 7.153440468128764 12.701944027447846 18.996387286604271 27.290540621928859 11.125670121812002 16.112158520963362 57.804313647904671 15.434100139768478 19.035987028018305 76.916122471573388 10.059334607002677 21.862785214572789 92.674336664915415 9.8162704207767995 18.192522192243782 28.402927728590932 23.258764571923201 21.405894861941132 41.765574465690094 25.213210013715333 19.122346130898091 49.493625554515653 22.701602500231182 20.612708338381626 65.957211027876539 20.038103086651166 22.567744135786914 89.433041233012986 18.378417851333158 16.043120371905193 12.569843464429425 29.620728780747235 22.77364271093267 20.169472163419712 27.855676065218375 18.340728146739927 31.681936781108611 27.64508312747521 18.855445687149764 49.899468708566111 32.724284425313378 22.421289814629489 61.643989416292598 29.139858652004165 20.013152027381452 67.744458920118277 27.876477231419056 18.458623770537734 81.381562694717843 36.528714107987639 19.244634129356591 91.691230826751024 36.380436667879394 17.762246122128211 14.502857546145236 42.313946873483005 20.267367124605656 20.26071203843447 40.799887787013915 24.563040616026928 29.345629328904195 44.064255018731714 20.789722754782225 35.889419950354757 41.042288574961603 19.673457640142228 49.049880575132335 40.671694902016569 24.691050478670846 59.009361842624116 47.64704733601932 20.798979587497396 68.611589320264613 47.277374594619012 20.857117772956769 81.667456418206569 38.770888323578163 22.051989142299828 89.864719935966406 47.170088526129135 19.474722492206006 10.144046499311846 47.907389453632881 14.912193191605805 19.447608375622718 55.460531072991763 17.96510504711885 32.460249271632605 53.247084376757094 19.702238803564832 61.037526870535331 57.255977349083004 20.217529683546793 90.427602632635839 48.042223783674622 16.386133033794287 31.161075456774988 63.55592921383181 20.161461377161199 38.523616411707856 62.863620531298771 19.927323518883163 63.0710654683038 60.187306853249709 22.028379752793064 80.572163725696896 57.846021699953127 23.272342994271405 12.795181644982403 71.891530935526234 18.859316990336062 23.720488755753642 67.816457619186707 19.735344333074938 29.947118023833777 67.089375162107558 21.266661176119797 46.643574272502086 70.019651217394696 19.115938019600659 59.111883641819603 69.4563318013399 19.671914253641905 70.786044080004359 75.504203267968578 21.896376327497244 89.582368146258631 72.592094613857114 19.11662403688532 9.8750266289210469 88.083025722468079 19.478903389658392 21.271678011441356 87.77380195668843 20.65487899266574 47.353400596439336 80.066476296879145 20.353634527731089 70.861094235950432 87.294860725293233 18.630091304054016 79.738374920441672 86.354816257570803 22.039717196296774 91.061923753290557 81.501990476786332 18.774316630176177 11.711724860968525 3.812557675749078 21.099327005040063 43.116538335419307 3.7743974531494895 19.398412376750034 66.545180194984084 2.5469337599950301 23.328029927277136 79.655356900814255 7.1144184370774504 20.17576912931165 12.47497484959373 8.0223638358522908 19.506634007853201 28.022565176579985 12.106113888163845 23.222801366109024 64.169230525136072 12.451681226910443 20.14777876338804 83.733229890639819 7.0637230953621284 21.278223762548905 90.095890221107709 13.435344977459017 22.475856761435892 31.959558277578921 22.333177430385529 15.918708905101996 39.422809703219158 23.778671166294664 18.43060546708567 48.982658938649337 27.657564473514316 21.48276434703773 69.893338359438189 25.675940359025049 18.700416172215892 87.493481727931766 26.609501830562117 19.598759733679319 6.8849046063618973 30.502177387619046 17.600466822312374 20.279620868800688 34.036189234228203 17.559005469913131 27.84283148421704 28.978126628235284 16.4952463363277 50.283304485963377 32.68713399230132 15.493978999621156 59.980515428268063 35.172240145928434 17.856193870636975 71.672845770613563 36.192282074538539 22.768292863352237 80.824073670476793 27.9622187315079 23.244216278295145 87.381459336380487 35.289580854791517 21.84712830003663 4.6036210161940652 37.742125898736006 19.729598193876932 19.398887595934834 38.801650581701359 20.178861061659685 31.442740304658269 40.430209770256205 20.846183728583174 43.271067371473286 37.82733665204794 19.150454605328029 49.032057713465633 37.281560402329127 20.715536339496715 64.385364672034328 41.868799256279374 20.133842678985587 69.982170954677059 38.470850975745968 22.561409404314873 75.456863142505512 39.267421566013894 18.911005685183394 91.148181585679424 41.61853126848284 20.323855455541143 9.8684532295052403 57.681854640469226 22.266828076060296 18.628369212712887 56.647863081112057 20.903363017191239 25.326647236290487 48.39093442949099 21.07836022680506 59.606852776461551 53.555328602589547 22.646142096261645 91.16580873249714 47.903359259076957 22.092633465343322 28.06662453801658 65.209165069705662 18.837214749857043 39.250806563856457 66.525777979266934 22.055236560373263 60.114383761282618 62.077906241583086 15.37773333005007 78.783958976195891 64.017774559332636 18.681328292521311 8.6614262706512442 76.560783392985556 21.986542661701915 15.065376960568535 75.010244789773168 20.714488467613023 33.748604735048673 70.645559701244864 19.045801547017078 52.44075820576915 75.619955351619495 18.419267413157034 62.251531611060486 75.850745841169697 20.341109730675093 71.680975332128341 74.485517045931829 19.021481308835739 87.528251172844463 74.107766468792107 21.844449488387777 10.989477297919898 76.960201130761291 18.006262227941864 18.761024622229641 82.171208991234252 18.285543994049842 50.283722802677325 84.248189899759225 21.431454928257779 67.629897312528058 84.045697304568051 20.02306177534577 80.389549393904446 79.848529946551977 21.658265841665781 87.398420945888688 81.233226174397601 21.290927630140896 35.39836318334811 3.3476169185940772 17.643328698232043 75.763676170248416 4.5288516271723811 17.558981326489931 80.300994230914597 1.6259961532245688 23.494298503042366 8.5543722865976601 16.034333497743038 22.383493778170433 30.872314753649686 13.143257013104643 19.845121877127234 58.215617705716717 13.484973107057311 21.48288138173778 78.148309486229209 13.455019974870778 18.139275166594391 92.396703856477231 15.395968850597143 20.473124420938969 31.186077529101471 16.455575460886198 24.541200137725742 67.675979529136143 19.404266099059491 18.017266416011889 92.621558808596177 18.732893012365309 19.100915851030038 9.0422887606704503 33.622981869595172 23.169962540682153 16.186990371547441 29.564003910870682 16.519133969985308 35.777076871127733 32.413803627154849 20.209334439298711 53.467418895599671 33.244156419099284 19.434264188212733 63.730222445870176 29.378867262100162 24.03937383233297 66.37633150796087 34.839158702427731 20.09559796770186 10.280341215667672 45.024130034448817 20.65490466170192 16.846350408387902 37.933507416688734 24.842077055637791 26.139339233019967 45.524253407956564 19.53059191333406 39.443344051917784 39.18970512647288 17.820846811740005 51.503698381730551 43.826332274557871 23.659553510790214 84.676793451743819 38.364734097308116 17.255367382824328 8.4192984753842968 47.905888587909303 19.612832134458209 32.349640667836333 49.18250644555809 15.864888506831402 89.796989571087281 55.465529355488968 18.394308923503957 29.922861007230743 62.135359593382034 24.26628458092809 59.05300352861353 65.50674329049437 22.529149881680993 84.884542711356659 57.425318268806969 16.184168037896026 11.956399084689224 69.003457151036741 22.957609838126988 20.378539091448456 66.604175539864698 21.504955272481045 32.852418324928834 69.578210441282323 23.698055471196813 47.844314493342146 65.259668872764266 22.623639672304144 59.558893431790501 67.772021955336129 22.222995717832394 92.082672380486954 76.077165372188901 18.314916134929522 48.973552362525879 83.45896442837109 18.028307711278433 10.163361730459082 4.8945956933478785 22.070233780177194 41.044402114505836 1.4264661506095124 21.884263457177578 65.857083520512447 2.7652208337743871 19.316784729265628 79.976113134318979 5.7070356385542818 16.752790308101986 9.2949649117433122 9.9249109458899394 21.460104655710136 32.884470147101823 10.258337210487126 20.368053937373944 61.536579044144815 4.4408433964311573 20.716216619147637 78.018132522192559 9.6539974314874062 16.069081199130483 86.761864656107292 12.018079977888908 22.609858594160976 29.496075519832022 18.268712470137935 20.745617908950447 36.991177332015262 24.226602167499056 21.298610576703769 51.448539327243076 23.5740966504152 20.658064174208587 75.633657007692335 21.378645898611584 21.399001615847109 90.500780208642027 21.978094704209983 20.006047768556122 10.692250097442615 32.810232070148061 19.939814689854511 18.629351690550727 34.924881144133664 21.966463128447998 28.162375473338571 32.909460555891734 23.542456555084875 46.402763123525069 27.850035859574078 19.85369114005746 58.202704067344321 33.322943357525531 21.497780129331129 73.68430229044948 31.039256954832808 21.647292274797525 76.420199447857684 32.133981247309286 18.060562326613685 92.541468295909425 32.099672461897271 20.012482163707759 11.078624705803644 39.838551524827821 21.967228320734293 21.79040653435381 39.529512686862994 16.510009788149087 34.038126603750086 37.136236436163003 19.630420541124668 40.130024775593242 44.867166291521073 20.896668252937239 52.500739997435424 44.700592129635055 18.83344561251549 58.135255091031446 43.540352471589081 19.738791459578152 71.493291766288991 42.837276060702166 18.912193029301299 80.310759324021163 48.08598599785595 21.073604869578805 93.095265236646227 38.248883931891186 20.670675885686318 12.936961625273055 52.749472439014994 22.31758265402248 18.984409723006987 50.24973071221843 19.714428172362961 32.197593393102423 50.356593444759469 20.275395806276734 59.583015852530629 48.065131386555663 16.556609844457547 88.794699320043676 55.065585840628856 21.778023129953905 29.847148702051172 55.312296133357059 16.963456054642336 41.294352675882088 65.961119711035593 17.036153470939603 56.125616745566916 61.375204865535608 20.460148885462988 75.990774385718211 61.469066667539686 20.69049778655873 6.4101871010860556 70.921451010508562 22.165621050607932 21.212126967759769 74.685313246438639 22.358275628410457 27.936019346166407 74.065096632624019 20.559367542873627 49.786870979888626 78.15424188600953 19.855617383458075 60.721502128006762 72.988216162477386 16.842098731714994 67.250573655211582 75.97876956280308 17.721934385909549 89.401772628882128 67.044698534591802 22.637758778915817 7.2963277996678437 80.992724425421471 22.232784232605145 18.281422724579571 81.211255405643726 21.467083733759388 52.033167978020316 78.925911522522625 15.979475773905 69.91308556278257 84.669059527604119 22.517335945928075 81.842863828059748 78.85813601456492 17.058726088605617 90.827523374138877 88.649528041022037 21.030466654124943 40.407024643447642 8.6030804866165997 22.236442815134009 73.287833164064438 1.7768045943164053 17.387161594985884 76.114574739367953 1.9290800712196539 23.999849327511786 4.5832524994847992 8.3373587205841044 20.128790386874332 29.529242870512189 13.052593767584172 17.101527174075361 55.645217759702099 11.21651512427202 20.167425439006877 77.37854741464696 15.931525977948128 23.136843190822791 91.109464095091312 12.602122645686116 16.140026362134385 32.072354053935697 20.67236842787479 23.818831048274184 66.582112104907438 26.04008269251888 20.795687397468601 91.990636684818355 23.364211548843969 15.21238694805732 13.619149757480438 34.729715810671664 20.554774101917538 22.463340334897616 31.22342976741168 17.036879762245377 31.304250348311612 27.436241754841546 22.892514267601282 47.672789854566822 33.090771374084113 25.25745963561716 62.716502606640695 25.780348416388144 17.6245913467056 69.138709898488372 31.945685822506356 16.597272380864233 12.118399583732669 45.077622796196614 18.51566611507041 18.486542211229914 46.060276317788897 23.54436551831278 29.616118790211807 41.731552793587348 17.466464910419514 38.456009968960387 43.775923112031499 20.81377960402218 46.961280841134048 41.799005541880014 20.03121515533795 78.188190210137904 36.365520156158652 18.557487369979718 7.9081556853484694 51.166836034183085 17.513478688201968 28.182705377664622 52.223730840964876 17.578349110455051 87.381555903498722 51.928842591251652 16.736326893120978 33.971868424668486 60.308915007993839 21.063262016629391 59.679049244986153 60.838485043927619 23.171100366104906 83.183144164586921 57.177451752348063 20.425098215648806 12.857895634352035 70.813028645896594 14.572995438080829 21.600499060241141 67.743707138156353 18.016906975320659 29.693776929768209 70.81263512621139 18.994737068090377 49.916725471454072 66.897707951845817 18.341854224978231 57.232689860792703 72.360445593358136 23.310714769412847 89.395844741229624 74.460069496441363 14.753548301373907 45.267577034177897 84.54772159474993 22.186691813257212 42.645594606118564 6.1498524741979752 16.351943251713379 70.822212796625337 1.3240015288714944 24.789046172188836 14.627322007656295 10.071397414191317 17.4128423378679 28.802944130148965 15.573783931687835 20.563665427295874 59.776082672647156 12.128164601098362 18.016821179764772 83.070728327835297 11.671389438631424 23.340106483264705 30.932947359570463 18.058007507397132 16.494012888227683 4.5186438729139899 26.390614646761282 19.601889458972749 21.416807076308658 32.432135294541943 22.008049890725047 28.489516867105586 32.866439918531825 16.59184749081885 81.680069986094921 26.354059624263492 18.686884481732459 6.9101229705093825 41.646937530119544 21.178354275023494 17.408177434040553 40.304337371294295 17.12613812118261 28.75410642841506 39.705792289345695 24.833268614322513 43.218941108334263 41.637161472039573 16.944235680866999 50.255418495901502 35.5888934773389 17.384374482691737 60.278805587965046 40.858058723500598 17.826687934599637 69.342702633754868 41.472645632016821 20.37052799447018 77.787318562708961 40.499545694009292 22.501839408943383 86.977248761558258 41.242662202504114 22.428551852884731 27.535221738344429 52.071040863849156 23.366372473502707 86.361517608776154 47.572588877486069 21.215746541645512 63.151895197388512 59.907703734873266 17.851042733931411 77.824119450649931 69.747851869810987 20.333081491400918 18.354218656026198 73.146683856912389 20.07743987244411 30.95737837186989 74.738246936075939 18.913986688469837 8.3781503629728142 78.262068936478371 20.711842742197579 18.720106695781102 86.946721230358136 20.722542622406401 83.377529436941671 82.50837949188373 22.056799780299635 88.593126480566369 81.654239196130362 18.746188373094594 35.108907371073684 1.7848764770583068 21.926425465731366 84.201443659275753 1.7365847563713155 21.930609822075031 32.985919183562032 13.670718097441783 16.911360952194389 79.032809961467407 15.541945143955717 20.79784437696507 35.343234357293341 18.183853278907939 24.424356634828047 68.734923683984661 19.334893549961777 20.539773307901079 89.211819541258365 16.721735402214744 21.746376463509939 16.900795160945147 33.593641220187266 19.706705421179876 33.496539886655121 32.168244776346171 22.249608810344867 51.995778407568558 35.734763156701092 21.842948552704264 61.764969406167324 33.436923999769583 22.859939770190461 17.194359357241524 37.064963790344464 21.595276151717989 38.819222426101518 41.694274795855044 13.864583950534991 48.372477590997732 45.300539296128655 21.963062825227404 84.676190357606231 35.447194028183347 21.097357047195679 5.803811611082673 47.165853083349184 22.848002244730655 35.580492973113664 52.112948059009874 15.734775342881953 27.462215367476993 59.403185908091039 23.434902573589259 81.02633744773857 55.7711639693