<?xml version="1.0" ?>
<VTKFile byte_order="LittleEndian" type="UnstructuredGrid" version="0.1">
<UnstructuredGrid>
<Piece NumberOfCells="0" NumberOfPoints="23">
<Points>
<DataArray NumberOfComponents="3" format="ascii" type="Float32">0.96247007685897912 1 0.97210568722113655 2.8981884299978402 1 0.98516812723551772 5.1174770299136423 1.3516073371857082 1.3807829399452147 8.8589379418474916 1.1656946618691164 1.1436332862627787 1.0960631205378761 1 2.9186518400403596 3.353421198773666 1.3247655755111161 3.5638902663226482 7.2355491832559951 1.1499059254925543 2.7009771982595474 9.0 1 4.3627291967634134 2.3866856725828618 1 5.9724593988464365 4.5459806448873357 1.1560322194768344 5.885209108162953 7.5969405239746504 1.372665597057708 6.8962838265133026 0.99327809990845961 1 7.4882780315458657 2.9396304901483084 1 7.8881384280378404 8.8650133289498925 1.153420998656016 8.9000000000000004 6.6233236904690287 1 9.0 2.1526304170733885 2.5676506362720657 1.8929129749023528 6.4738021807422204 3.1550792568716082 2.2149541198624489 3.1515015168780476 2.7970078481550278 5.4675092285850022 4.9138848317386055 1 8.022454270671437 5.3024982815252901 3.1573094743667474 4.3345284025496751 6.6119252104169695 1.0974373054180975 4.7783067499643801 0.98630163157625461 1.6166839356791418 4.7444179117983181 1.3939759622032575 2.6342396253113529 6.4002609430267867 </DataArray>
</Points>
<Cells>
<DataArray Name="connectivity" format="ascii" type="Int32">0</DataArray>
<DataArray Name="offsets" format="ascii" type="Int32">0</DataArray>
<DataArray Name="types" format="ascii" type="UInt8">1</DataArray>
</Cells>
<PointData>
<DataArray Name="Points" NumberOfComponents="3" format="ascii" type="Float32">0.96247007685897912 1 0.97210568722113655 2.8981884299978402 1 0.98516812723551772 5.1174770299136423 1.3516073371857082 1.3807829399452147 8.8589379418474916 1.1656946618691164 1.1436332862627787 1.0960631205378761 1 2.9186518400403596 3.353421198773666 1.3247655755111161 3.5638902663226482 7.2355491832559951 1.1499059254925543 2.7009771982595474 9.0 1 4.3627291967634134 2.3866856725828618 1 5.9724593988464365 4.5459806448873357 1.1560322194768344 5.885209108162953 7.5969405239746504 1.372665597057708 6.8962838265133026 0.99327809990845961 1 7.4882780315458657 2.9396304901483084 1 7.8881384280378404 8.8650133289498925 1.153420998656016 8.9000000000000004 6.6233236904690287 1 9.0 2.1526304170733885 2.5676506362720657 1.8929129749023528 6.4738021807422204 3.1550792568716082 2.2149541198624489 3.1515015168780476 2.7970078481550278 5.4675092285850022 4.9138848317386055 1 8.022454270671437 5.3024982815252901 3.1573094743667474 4.3345284025496751 6.6119252104169695 1.0974373054180975 4.7783067499643801 0.98630163157625461 1.6166839356791418 4.7444179117983181 1.3939759622032575 2.6342396253113529 6.4002609430267867 </DataArray>
<DataArray Name="forces" NumberOfComponents="3" format="ascii" type="Float32">-0.10688190299218099 0.0 -0.079440536588931132 0.0022852999473129097 -0.057471789006531826 -0.042239862310643708 0.0033731663137689348 0.0024705917641946497 -0.054728488008158348 0.16785004753225896 0.0053706179820999927 -0.16052741720285438 -0.020947896842382178 -0.027386196475748137 0.0051298694540784784 -0.014380521284331538 -0.073972372338421577 -0.006260476930873525 0.0048530598510539147 -0.039594307297065472 0.0089635652002174326 0.0 0.0 0.0 0.015111813692223353 -0.045930958567243496 0.013967945194563305 0.0028894503917582387 -0.022147163670658672 0.0091582179855488072 0.0076510212109124898 0.062442654066744277 -0.0043340740827803037 -0.019143377160873512 0.0 -0.003920037040672163 -0.0016193626188609166 0.0 0.0033734404332982212 0.1851522128598764 -0.029583689703849805 0.28479115875235361 0.0017538295470244415 -0.0088896158373600407 0.060351775019360079 -0.035148803021155778 0.055548387629920801 -0.0020132711297470886 0.0049247926167109435 0.069138898447761124 0.0023964484318657938 -0.023896246360380027 0.047768449932626633 0.016172233980521949 -0.0021760837515753216 -0.0019222897179926154 0.0066248082235120138 -0.017111283117440014 0.14101807343901795 -0.0031488741814054075 -0.015369622801417265 -0.18902029838848095 0.0022601077090642144 -0.039011742164150966 0.028247922276571344 0.023779972965164854 -0.01905274359218579 0.04171751303764331 0.025735874590091065 </DataArray>
<DataArray Name="radii" format="ascii" type="Float32">1 1 1.4 1.2 1 1.4 1.2 1 1 1.2 1.4 1 1 1.2 1 1 1 1 1 1.4 1.2 1 1 </DataArray>
</PointData>
<CellData/>
</Piece>
</UnstructuredGrid>
</VTKFile>
