<?xml version="1.0" ?>
<VTKFile byte_order="LittleEndian" type="UnstructuredGrid" version="0.1">
<UnstructuredGrid>
<Piece NumberOfCells="0" NumberOfPoints="35">
<Points>
<DataArray NumberOfComponents="3" format="ascii" type="Float32">0.97224659344627662 1 0.98030243967307884 3.1454065818672086 1.3724202845999989 1.2979755072753401 5.2296253372659809 1.1300677851274137 1.1237566902485976 8.8696684541129951 1.1665013442154983 1.1613414635478725 0.91527461679999522 1 2.9208808867572342 2.7879501188754059 1.3476590072614061 4.3236762551294099 7.062838767658886 1.1531699121843844 1.1390737660902854 8.8510456206954284 1.1614823668453926 3.2131581104646876 3.5153218863505629 2.1522173478958235 6.3319428313288872 4.8281100869788389 1.1419560750249802 7.2222366560118649 8.639032210455639 1.380461038214555 7.113251119135219 0.95561518442955717 1 8.0335889062941757 2.2733577395696507 1 9.0 8.8355087851181739 1.1529445213417062 8.8942649928394584 6.6217213429806323 1.1651086501345334 8.8443415093202891 1.6318202237802919 2.9998526884892809 1.6553068799122226 6.0166963361408783 3.2102726161001702 1.1994204345300643 2.4727856686793741 3.313112577352213 5.406961059487827 4.4007939984567521 1.1679626943413863 8.9000000000000004 6.2995200865794621 3.320956824370394 3.7788514706159337 7.2123044794746463 1.1652519731080555 4.91594208761496 0.93114556392550241 1 6.2501632925164197 1.394056590278129 2.7595546828729538 7.2692575437732581 4.7040098497097187 1.3468738253101797 3.0183212414361358 5.1135012670312578 1.3147252169263461 5.0621964010811578 8.8924694272351381 1.1227995973491054 5.2332066758629407 5.1982560915229445 3.3508197735871401 6.3613732342787577 6.8443175123205924 1.1320548147587755 3.0147095542665077 6.6201264588509945 1.1549657382446965 6.8150363392212521 8.6929601636377019 3.1406297419613587 4.5111633721832289 2.1707792020660053 1 2.5037133612267284 2.3811632202245132 1 6.2626838179117215 2.9087948285611587 1 7.6768585428155003 3.3181621598252407 3.2602134143931361 3.1699959863922835 0.94400880555601407 1 4.6185432868139538 </DataArray>
</Points>
<Cells>
<DataArray Name="connectivity" format="ascii" type="Int32">0</DataArray>
<DataArray Name="offsets" format="ascii" type="Int32">0</DataArray>
<DataArray Name="types" format="ascii" type="UInt8">1</DataArray>
</Cells>
<PointData>
<DataArray Name="Points" NumberOfComponents="3" format="ascii" type="Float32">0.97224659344627662 1 0.98030243967307884 3.1454065818672086 1.3724202845999989 1.2979755072753401 5.2296253372659809 1.1300677851274137 1.1237566902485976 8.8696684541129951 1.1665013442154983 1.1613414635478725 0.91527461679999522 1 2.9208808867572342 2.7879501188754059 1.3476590072614061 4.3236762551294099 7.062838767658886 1.1531699121843844 1.1390737660902854 8.8510456206954284 1.1614823668453926 3.2131581104646876 3.5153218863505629 2.1522173478958235 6.3319428313288872 4.8281100869788389 1.1419560750249802 7.2222366560118649 8.639032210455639 1.380461038214555 7.113251119135219 0.95561518442955717 1 8.0335889062941757 2.2733577395696507 1 9.0 8.8355087851181739 1.1529445213417062 8.8942649928394584 6.6217213429806323 1.1651086501345334 8.8443415093202891 1.6318202237802919 2.9998526884892809 1.6553068799122226 6.0166963361408783 3.2102726161001702 1.1994204345300643 2.4727856686793741 3.313112577352213 5.406961059487827 4.4007939984567521 1.1679626943413863 8.9000000000000004 6.2995200865794621 3.320956824370394 3.7788514706159337 7.2123044794746463 1.1652519731080555 4.91594208761496 0.93114556392550241 1 6.2501632925164197 1.394056590278129 2.7595546828729538 7.2692575437732581 4.7040098497097187 1.3468738253101797 3.0183212414361358 5.1135012670312578 1.3147252169263461 5.0621964010811578 8.8924694272351381 1.1227995973491054 5.2332066758629407 5.1982560915229445 3.3508197735871401 6.3613732342787577 6.8443175123205924 1.1320548147587755 3.0147095542665077 6.6201264588509945 1.1549657382446965 6.8150363392212521 8.6929601636377019 3.1406297419613587 4.5111633721832289 2.1707792020660053 1 2.5037133612267284 2.3811632202245132 1 6.2626838179117215 2.9087948285611587 1 7.6768585428155003 3.3181621598252407 3.2602134143931361 3.1699959863922835 0.94400880555601407 1 4.6185432868139538 </DataArray>
<DataArray Name="forces" NumberOfComponents="3" format="ascii" type="Float32">-0.25774513580617869 -0.034287340674279229 -0.18293070984583554 0.0039389635073199258 0.20134582139392676 -0.94749870369863021 0.035343387279439475 -0.31335238105028984 -0.70806955492645207 0.64700904849286167 0.025005096504154646 -0.35902078213836297 -0.78684234156423094 -0.015669199880124576 -0.032186260745683759 -0.037025063720834306 -0.028611491342294987 0.056606308794046392 0.034107583717312054 -0.098803552091790953 -0.56582028598257372 0.47405929837785654 -0.021606010545423167 -0.034213100994843391 -0.010931656904251068 0.44864728568483114 0.098558064749418126 0.016979203229132267 -0.20294615440491909 0.028343831028016409 0.36249108249936701 0.27602008267266376 -0.025020960614373547 -0.41220058138777194 -0.22247942541613464 0.076624718421994475 0.028289453352048716 -0.0040877303119150558 0.72721530084658159 0.32976912671530356 -0.10089675074987581 0.87543643819518346 -0.040331343677331218 0.012071184253060746 0.41179839741422081 -0.1251547647548002 0.13440374506076314 0.021116620600060476 0.025302462056987267 0.34447123084531311 -0.005382408839359927 -0.13132102316359551 0.2777814230046225 -0.005389684957290003 -0.077163713419084456 0.038576615586983616 0.9286972945366232 0.016689748781950606 0.42644693617332741 0.022254457026484608 -0.013429318419317202 0.013402220830610812 -0.036129623894620766 -0.63944928499230735 -0.10450907637690506 0.081541140902059661 0.0717540154662826 0.32698850179303968 -0.033852323684532358 -0.066816698674326117 -0.035903454880525355 0.035676224130754025 -0.059862180710594862 -0.33446671117236143 0.055500184870950348 0.85876106900623927 -0.3808518443092806 -0.046481147576659707 0.12189683898131363 0.34279527785210856 0.12576164523882752 -0.077652854332893928 -0.29489889062219199 -0.022810994707294308 0.031710327783253583 -0.08212576405508791 -0.023587632664219593 0.067455023475340964 0.3523053412984426 -0.051784885532097952 0.078647552332496734 -0.31686067931462836 0.045588234145819806 0.10196424920591643 -0.34411887272670583 -0.10703025317420345 -0.048004642813556597 -0.13501761317538363 -0.083521240179615097 -0.0039316157603077259 0.17756471229843007 -0.071762269351550459 -0.51998870798003705 -0.11607299565121161 0.019582481266232743 </DataArray>
<DataArray Name="radii" format="ascii" type="Float32">1 1.4 1.2 1.2 1 1.4 1.2 1.2 1 1.2 1.4 1 1 1.2 1.2 1 1.2 1 1.2 1.4 1.2 1 1.2 1.4 1.4 1.2 1.2 1.2 1.2 1.2 1 1 1 1 1 </DataArray>
</PointData>
<CellData/>
</Piece>
</UnstructuredGrid>
</VTKFile>
