<?xml version="1.0" ?>
<VTKFile byte_order="LittleEndian" type="UnstructuredGrid" version="0.1">
<UnstructuredGrid>
<Piece NumberOfCells="0" NumberOfPoints="19">
<Points>
<DataArray NumberOfComponents="3" format="ascii" type="Float32">1.0 1 1.0000561806793336 3.3283219474254873 1 0.98390422391640719 5.8026940591999399 1.1643915635437407 1.1876541523542987 8.4028326477348294 1.1641476350146394 1.192822245810329 1.1759661058560527 1.1343715791247293 3.5638686229023566 4.0741411550760889 1.3061575368312504 3.609682346004278 7.0746607018230057 1.1097152103753707 3.2065090117170221 9.0 1 4.1835162051462547 2.0135326177541217 1 5.600541355485249 4.8889815865808304 1 5.8222496132975703 7.5015338333338644 1.1664735782468403 5.7750319619612327 1.0 1 7.3929453255348294 3.2542392435802769 1 7.8841482978718993 8.8038778652335949 1.1638088526306456 7.7905578656859422 6.873823344727068 1 9.0 2.4197595404455345 2.3491792927589579 2.1507749255294999 5.765129297506542 2.9188404781519064 2.8481747899838687 2.3173639986556638 3.0113172750816526 4.6468588589681561 5.3081395568509055 1.1405626053731104 7.7730032034559748 </DataArray>
</Points>
<Cells>
<DataArray Name="connectivity" format="ascii" type="Int32">0</DataArray>
<DataArray Name="offsets" format="ascii" type="Int32">0</DataArray>
<DataArray Name="types" format="ascii" type="UInt8">1</DataArray>
</Cells>
<PointData>
<DataArray Name="Points" NumberOfComponents="3" format="ascii" type="Float32">1.0 1 1.0000561806793336 3.3283219474254873 1 0.98390422391640719 5.8026940591999399 1.1643915635437407 1.1876541523542987 8.4028326477348294 1.1641476350146394 1.192822245810329 1.1759661058560527 1.1343715791247293 3.5638686229023566 4.0741411550760889 1.3061575368312504 3.609682346004278 7.0746607018230057 1.1097152103753707 3.2065090117170221 9.0 1 4.1835162051462547 2.0135326177541217 1 5.600541355485249 4.8889815865808304 1 5.8222496132975703 7.5015338333338644 1.1664735782468403 5.7750319619612327 1.0 1 7.3929453255348294 3.2542392435802769 1 7.8841482978718993 8.8038778652335949 1.1638088526306456 7.7905578656859422 6.873823344727068 1 9.0 2.4197595404455345 2.3491792927589579 2.1507749255294999 5.765129297506542 2.9188404781519064 2.8481747899838687 2.3173639986556638 3.0113172750816526 4.6468588589681561 5.3081395568509055 1.1405626053731104 7.7730032034559748 </DataArray>
<DataArray Name="forces" NumberOfComponents="3" format="ascii" type="Float32">0.0 0.0 0.0 0.0088514390683400775 -0.013326299925279407 -0.011521412524283306 -0.0056724560082071643 0.00041710649907792898 -0.0088372007009385398 0.0033186523202524054 0.00024250160922227286 -0.0051378614232462615 -0.017203545051775196 -0.021071302799592212 0.0038266145484907015 0.0018945292847785469 -0.031912158559651335 -0.0059097052627630885 -0.018389648339319539 -0.038720417339759089 -0.0019931512511882771 0.071580347940026559 -0.0076510911586266149 0.011361969072865411 0.0 0.0 0.0 0.00038319584877292198 -0.0027551054947086632 -0.0043836907281638998 -0.015504896484741369 0.0019074198677191785 0.011924790627609542 0.0 0.0 0.0 0.0 0.0 0.0 0.0027757894268524951 0.0 0.0044046163872556322 0.0066876213200533254 -0.00070336598009322973 0.0053386187342866331 -0.0050883040499899619 0.025585524782296778 -0.0046529508543159135 -0.017837174153866136 0.059361437553299569 -0.016612982497235036 -0.0091289261798126672 0.0275986311265429 0.016806124043921941 -0.0037484450693426141 0.0018317551612699356 0.0080344502130569838 </DataArray>
<DataArray Name="radii" format="ascii" type="Float32">1 1 1.2 1.2 1.2 1.4 1.2 1 1 1 1.2 1 1 1.2 1 1 1 1.2 1 </DataArray>
</PointData>
<CellData/>
</Piece>
</UnstructuredGrid>
</VTKFile>
