<?xml version="1.0" ?>
<VTKFile byte_order="LittleEndian" type="UnstructuredGrid" version="0.1">
<UnstructuredGrid>
<Piece NumberOfCells="0" NumberOfPoints="20">
<Points>
<DataArray NumberOfComponents="3" format="ascii" type="Float32">1.0 1 1.0000561806793336 3.3948925540005712 1 0.9833625022789213 5.5813714479228205 1.1588922006851206 1.1266854193593057 8.4747281257630345 1.1638088526306456 1.2 1.1700163018925092 1.1290750527369549 3.5732547957519603 3.5224894145000119 1 3.618428196096763 6.8946367626456748 1.3551772352670348 3.3832950873119043 9.0 1 4.3839778614127125 1.9983949322822037 1 5.6408966614247289 4.8877258235892702 1 5.8163600700373159 7.436537902543229 1.1634106891970706 5.9166300313599223 1.0 1 7.3929453255348294 3.2542392435802769 1 7.8841482978718993 8.8112760565987962 1.1638088526306456 7.8684855288867679 6.8813168300860745 1 9.0 2.4301866593656816 2.3093611434718651 2.1438781511187854 5.9185800086729525 3.3352157287218325 2.4039360729134041 2.415871349309922 2.9282798729182509 4.6860743233131403 5.3019018344834592 1 7.7730396180513424 4.7552280123686881 2.5518781489333215 3.8304678718129366 </DataArray>
</Points>
<Cells>
<DataArray Name="connectivity" format="ascii" type="Int32">0</DataArray>
<DataArray Name="offsets" format="ascii" type="Int32">0</DataArray>
<DataArray Name="types" format="ascii" type="UInt8">1</DataArray>
</Cells>
<PointData>
<DataArray Name="Points" NumberOfComponents="3" format="ascii" type="Float32">1.0 1 1.0000561806793336 3.3948925540005712 1 0.9833625022789213 5.5813714479228205 1.1588922006851206 1.1266854193593057 8.4747281257630345 1.1638088526306456 1.2 1.1700163018925092 1.1290750527369549 3.5732547957519603 3.5224894145000119 1 3.618428196096763 6.8946367626456748 1.3551772352670348 3.3832950873119043 9.0 1 4.3839778614127125 1.9983949322822037 1 5.6408966614247289 4.8877258235892702 1 5.8163600700373159 7.436537902543229 1.1634106891970706 5.9166300313599223 1.0 1 7.3929453255348294 3.2542392435802769 1 7.8841482978718993 8.8112760565987962 1.1638088526306456 7.8684855288867679 6.8813168300860745 1 9.0 2.4301866593656816 2.3093611434718651 2.1438781511187854 5.9185800086729525 3.3352157287218325 2.4039360729134041 2.415871349309922 2.9282798729182509 4.6860743233131403 5.3019018344834592 1 7.7730396180513424 4.7552280123686881 2.5518781489333215 3.8304678718129366 </DataArray>
<DataArray Name="forces" NumberOfComponents="3" format="ascii" type="Float32">0.0 0.0 0.0 0.010485637333075712 -0.014327025865930184 -0.012606543684789397 -0.033488236111571902 -0.0037254392801893397 -0.055551831115082155 0.0 0.0 0.0 -0.022719209724953351 -0.026318450829525095 0.0035597327090543321 -0.011956665569255278 -0.015473395952836652 -0.0020128278172357561 -0.028453491167778927 0.0033623072223127187 0.011981334531261715 0.075771873247607965 -0.013674386264375799 0.019868981364363582 -0.0025362900498401451 -0.012332773733427541 0.0060920679677484071 -8.4216998399801053e-06 0.0 -3.9783690565381667e-05 -0.0093633834829742434 -0.00030169589220681612 0.022605001301959336 0.0 0.0 0.0 0.0 0.0 0.0 0.0085440793133674548 0.0 0.012428025412866809 2.5474918553790746e-05 0.0 1.9791187785255848e-05 0.0013260570307211204 0.024919222418364015 -0.0010783782449905483 -0.0055510766854957767 0.017206162003910178 -0.01061541998585766 0.013443805410996663 0.028059028010518808 0.0040331212529772058 -1.705321871381064e-05 0.0 1.9992502780125819e-05 0.0094343350392510437 0.013812933957529755 0.0050101084826143678 </DataArray>
<DataArray Name="radii" format="ascii" type="Float32">1 1 1.2 1.2 1.2 1 1.4 1 1 1 1.2 1 1 1.2 1 1 1 1.2 1 1 </DataArray>
</PointData>
<CellData/>
</Piece>
</UnstructuredGrid>
</VTKFile>
