<?xml version="1.0" ?>
<VTKFile byte_order="LittleEndian" type="UnstructuredGrid" version="0.1">
<UnstructuredGrid>
<Piece NumberOfCells="0" NumberOfPoints="15">
<Points>
<DataArray NumberOfComponents="3" format="ascii" type="Float32">0.89399180916962451 1 0.93442988877537791 3.0000000000000009 1 1.0 5.1545507826138941 1.1642462102229465 1.1743992624049773 8.052926026725304 1.1643892382829382 1.1945221963359145 1.1902811514368286 1.1734083993256832 3.1438954861862496 3.7856329981289649 1.1679085634338575 3.1606250256227795 6.9470739732746933 1 3.0931204917452586 9.0 1 4.0 2.0561557478971806 1 5.1346089246665247 4.8997442261459492 1 5.0227841229635644 6.8751042573501033 1.1701354837955997 5.908887376779691 1.0 1 7.0 4.0 1 7.0 8.8752080486886928 1.1638088526306456 7.2226321789102528 6.0 1 8.0 </DataArray>
</Points>
<Cells>
<DataArray Name="connectivity" format="ascii" type="Int32">0</DataArray>
<DataArray Name="offsets" format="ascii" type="Int32">0</DataArray>
<DataArray Name="types" format="ascii" type="UInt8">1</DataArray>
</Cells>
<PointData>
<DataArray Name="Points" NumberOfComponents="3" format="ascii" type="Float32">0.89399180916962451 1 0.93442988877537791 3.0000000000000009 1 1.0 5.1545507826138941 1.1642462102229465 1.1743992624049773 8.052926026725304 1.1643892382829382 1.1945221963359145 1.1902811514368286 1.1734083993256832 3.1438954861862496 3.7856329981289649 1.1679085634338575 3.1606250256227795 6.9470739732746933 1 3.0931204917452586 9.0 1 4.0 2.0561557478971806 1 5.1346089246665247 4.8997442261459492 1 5.0227841229635644 6.8751042573501033 1.1701354837955997 5.908887376779691 1.0 1 7.0 4.0 1 7.0 8.8752080486886928 1.1638088526306456 7.2226321789102528 6.0 1 8.0 </DataArray>
<DataArray Name="forces" NumberOfComponents="3" format="ascii" type="Float32">-0.10600819083037466 -0.0052577055588296003 -0.065570111224621516 0.099999999999999201 0.0 0.0 0.01702840913120612 0.0004373575923009865 -0.025600737595022526 0.003190585625708728 0.00058038565229245984 -0.005477803664085421 -0.0097188485631714006 0.0095995466950375315 0.025594649058567571 -0.039866484619773032 0.0040997108032118437 -0.011887702109859549 -0.003190585625708728 -0.00058038565229245984 0.005477803664085421 0.0 0.0 0.0 0.015605284565555839 -0.0037131106926530932 0.036751562499179859 -0.033327260539629533 -0.0089684114967398913 0.011577065275658344 0.010150127160330716 0.006326631164954054 -0.0026844743196178592 0.0 0.0 0.0 0.0 0.0 0.0 0.075208048688691354 0.0 0.049049668830614492 0.0 0.0 0.0 </DataArray>
<DataArray Name="radii" format="ascii" type="Float32">1 1 1.2 1.2 1.2 1.2 1 1 1 1 1.2 1 1 1.2 1 </DataArray>
</PointData>
<CellData/>
</Piece>
</UnstructuredGrid>
</VTKFile>
