<?xml version="1.0" ?>
<VTKFile byte_order="LittleEndian" type="UnstructuredGrid" version="0.1">
<UnstructuredGrid>
<Piece NumberOfCells="0" NumberOfPoints="41">
<Points>
<DataArray NumberOfComponents="3" format="ascii" type="Float32">0.95786751113156654 1 0.95674740433351235 2.7171188126504231 1 0.92368531770513806 4.6740610608790858 1.3790091881347764 1.3073407829272103 8.6804914012428753 1.3569042627441255 1.3136881010771746 1.1063207141285361 1.1714320334282726 2.8437577781633219 2.7762845864031989 1 4.0692732365716209 6.7125034850995284 1.3121018426816806 1.3050770745464035 8.6914268404498571 1.3450666266436311 3.2157214610264937 3.5394158968971774 3.1272831945333923 6.5829710046186971 4.9864674508360203 1.3325423880131722 6.8092473117769892 9.0 2.0366747347528982 7.5554087838221911 1.1197018058877402 1.1432169605586038 8.8327379090986842 2.7245877457558909 1.1644525573564317 8.8811058798870484 8.8555620644090194 1.1277195935657167 8.8597646438009221 6.8948625405120421 1.3613688672239588 8.6999999999999993 1.5500634327471892 2.7181583888441043 1.3391536213805122 6.2972356980096622 3.616254716551675 1.393039100953851 1.5601754468094156 3.2610197165555839 5.0956291082547969 4.8098254740021265 1.3594314682801363 8.699511278012853 6.4943880025073604 3.332462651931027 4.0327567321794566 6.8327128257310674 1.3518937088263379 5.1826519483587816 1.1080454768015615 1.1409270046470141 6.6400733594939334 1.3903886409428057 3.1558836635890799 7.6701642398614345 4.2464031632966046 1.3904641721279007 3.7919383727616345 5.3331638600317124 1 4.8649844186920363 8.6936854477956214 1.3302291994622404 5.1141366783111621 5.9430230009984291 3.6033453192076967 6.227301103988542 6.7356375198929639 1.3469721468504099 3.2336321122912266 7.1023750257024636 1.3380710127433229 7.0346390688588754 8.6154351810583591 3.6607679541040539 4.5933974552236974 2.3770757647306557 1.1467273912513243 2.3832011884245592 2.5847421075190646 1.1450123040889268 5.9403502336063383 3.0468651270799563 1.136695557510234 7.441090362261038 3.0084839304883166 3.0222009412284856 2.8988655374923038 1.1301443197528873 1.1503202858157255 4.6039480127901831 3.7363185112872066 1 2.5277065526226581 3.2287326505866139 2.4451619089255772 4.7319285542624661 9.0 1 6.6126416432290496 5.0014351013332989 2.8788490577579178 3.1377143035661228 5.3503180723225752 1 3.1255258176331213 3.992535504232086 1 5.3659558958696882 </DataArray>
</Points>
<Cells>
<DataArray Name="connectivity" format="ascii" type="Int32">0</DataArray>
<DataArray Name="offsets" format="ascii" type="Int32">0</DataArray>
<DataArray Name="types" format="ascii" type="UInt8">1</DataArray>
</Cells>
<PointData>
<DataArray Name="Points" NumberOfComponents="3" format="ascii" type="Float32">0.95786751113156654 1 0.95674740433351235 2.7171188126504231 1 0.92368531770513806 4.6740610608790858 1.3790091881347764 1.3073407829272103 8.6804914012428753 1.3569042627441255 1.3136881010771746 1.1063207141285361 1.1714320334282726 2.8437577781633219 2.7762845864031989 1 4.0692732365716209 6.7125034850995284 1.3121018426816806 1.3050770745464035 8.6914268404498571 1.3450666266436311 3.2157214610264937 3.5394158968971774 3.1272831945333923 6.5829710046186971 4.9864674508360203 1.3325423880131722 6.8092473117769892 9.0 2.0366747347528982 7.5554087838221911 1.1197018058877402 1.1432169605586038 8.8327379090986842 2.7245877457558909 1.1644525573564317 8.8811058798870484 8.8555620644090194 1.1277195935657167 8.8597646438009221 6.8948625405120421 1.3613688672239588 8.6999999999999993 1.5500634327471892 2.7181583888441043 1.3391536213805122 6.2972356980096622 3.616254716551675 1.393039100953851 1.5601754468094156 3.2610197165555839 5.0956291082547969 4.8098254740021265 1.3594314682801363 8.699511278012853 6.4943880025073604 3.332462651931027 4.0327567321794566 6.8327128257310674 1.3518937088263379 5.1826519483587816 1.1080454768015615 1.1409270046470141 6.6400733594939334 1.3903886409428057 3.1558836635890799 7.6701642398614345 4.2464031632966046 1.3904641721279007 3.7919383727616345 5.3331638600317124 1 4.8649844186920363 8.6936854477956214 1.3302291994622404 5.1141366783111621 5.9430230009984291 3.6033453192076967 6.227301103988542 6.7356375198929639 1.3469721468504099 3.2336321122912266 7.1023750257024636 1.3380710127433229 7.0346390688588754 8.6154351810583591 3.6607679541040539 4.5933974552236974 2.3770757647306557 1.1467273912513243 2.3832011884245592 2.5847421075190646 1.1450123040889268 5.9403502336063383 3.0468651270799563 1.136695557510234 7.441090362261038 3.0084839304883166 3.0222009412284856 2.8988655374923038 1.1301443197528873 1.1503202858157255 4.6039480127901831 3.7363185112872066 1 2.5277065526226581 3.2287326505866139 2.4451619089255772 4.7319285542624661 9.0 1 6.6126416432290496 5.0014351013332989 2.8788490577579178 3.1377143035661228 5.3503180723225752 1 3.1255258176331213 3.992535504232086 1 5.3659558958696882 </DataArray>
<DataArray Name="forces" NumberOfComponents="3" format="ascii" type="Float32">-0.51884629311411068 -0.1995943739915956 -0.5326400013822632 0.0014886434670099979 -0.14982138310393339 -0.93978758630933956 -0.040744085756722836 0.34812690937427654 -1.1410645939099051 0.9912223626958826 0.075912784205513242 -1.062899676959264 -1.1536263705608449 0.093876701918523486 0.01193728999955479 -0.052005702275676163 -0.55995576016853832 0.053189794101387688 -0.049208341172806383 -0.4758127415408861 -1.1689413401837987 1.1258883235375128 -0.069863403599450674 0.007703940306392848 -0.013561249195515726 0.52509076969466573 0.049848096102244888 -0.021609026884591154 -0.22409485210898034 -0.013842857990622126 0.35485129717629527 0.89034477770104858 -0.0092538038920071952 -0.98884308707710145 -0.25358166955547445 0.40315545642700679 0.14710629735767694 0.0079269898314584461 0.99878944395048708 0.6842266367507599 -0.44442611367072932 0.73597987510833807 0.020306883157828581 0.13089276632372482 1.2314636686531979 -0.029544431442925834 0.27987025538831706 -0.096554802300309731 -0.0049347294702590805 0.61674463181156503 -0.085720942764952235 -0.24735076157720254 0.32009194813222897 0.08217450373876202 0.053887013637908709 0.10703440221367881 1.225445234940757 -0.016517069057985223 0.30971110974331878 -0.016709980801367194 -0.012377679509988901 0.014209633109679976 0.0020975553380210288 -1.132386544872046 -0.28178164463487598 0.19196215061506211 -0.11836039485315669 0.61757083083714848 0.12249545269919222 -0.068337915748928474 0.32801572012909092 0.063187726998337079 -0.025343279981988376 -0.42236476285731678 -0.022445170542191001 1.1537022524181348 -0.25258092870115079 0.035816270610782297 0.097392864068421764 0.6179819837896402 0.065369030204856557 6.1926041777571328e-05 -0.046397614554124167 -0.018701382217938822 0.037957265166284448 -0.15601184718099825 0.012822466729092846 0.19007864692453055 0.63174255334429197 0.022836439572011924 -0.0030369656333635309 -0.21035199096137022 -0.014769101119244094 -0.040681486749387874 -0.23147266625202773 -0.16584251960298485 -0.039704559701420838 -0.33389037878258809 -0.096792336951072588 -0.06799080387209637 0.48746454434100439 -0.13789472814360371 -0.86024732273374171 -0.16610679974775155 0.058595563975488152 -0.013146354330252352 -0.52875861491721754 0.10424330322928484 0.23213050269755797 0.63044740251772102 -0.037727531201742839 0.59489541913172594 -0.7310622349585717 0.23792854145495568 -0.050586627562302457 0.29854275904382932 -0.0029494127697366453 -0.01942085871657289 -0.67895917639800318 0.029827209895293087 -0.05071269213846652 -0.51631614159948669 0.063560563852595772 </DataArray>
<DataArray Name="radii" format="ascii" type="Float32">1 1 1.4 1.4 1.2 1 1.4 1.4 1.2 1.4 1 1.2 1.2 1.2 1.4 1 1.4 1.2 1.4 1 1.4 1.2 1.4 1 1 1.4 1.4 1.4 1.4 1.4 1.2 1.2 1.2 1.2 1.2 1 1 1 1 1 1 </DataArray>
</PointData>
<CellData/>
</Piece>
</UnstructuredGrid>
</VTKFile>
