<?xml version="1.0" ?>
<VTKFile byte_order="LittleEndian" type="UnstructuredGrid" version="0.1">
<UnstructuredGrid>
<Piece NumberOfCells="0" NumberOfPoints="194">
<Points>
<DataArray NumberOfComponents="3" format="ascii" type="Float32">1.9496324222502104 1.9265456399339744 2.0 5.2245147543917501 1.9846665185207257 2.0 6.7987977895153975 1 2.0 7.2880122384783927 1.9499024577078754 2.0 13.240543330305149 1.9506805816562762 2.0 16.167375920953983 1 2.0 17.953491875330553 1.9471913795261735 2.0 22.211512111170027 1 2.0 22.91660767178864 1.9349447322986011 2.0 28.780985517088677 1 2.0 31.009760827023303 1 2.0 33.737624552196614 1 2.0 39.145253566055338 1.9412275440596654 2.0 40.444763051039693 1 2.0 43.0 1 2.0 45.757412801363081 1 2.0 47.266439822722269 1.9438162577518998 2.0 52.23633979604935 1 2.0 53.993877182493982 1 2.0 56.709174860544607 1.933735883825622 2.0 58.713289901810981 1.9322240902313583 2.0 63.378378918998813 1.9230075961604172 2.0 69.418740388923126 1.9258856898632115 2.0 70.403839749717235 1.9313235149949004 2.0 73.210347990038173 1 2.0 76.501128987705059 1.9412360373472137 2.0 77.945413761338472 1.9326743394344794 2.0 82.425299910779216 1 2.0 83.644638721107626 1 2.0 85.422880344626961 1.9442667293852558 2.0 89.898596632131714 1.91185486565538 2.0 94.515750928330306 3.3121125744029141 2.0 96.021681245861458 2.8428726892999858 2.0 103.83489517703357 1.9496376378380373 2.0 2.7350231986732174 6.1229989244151399 2.0 4.4428794753834113 1 2.0 12.23822773807612 1.9509588611485373 2.0 15.794144541239319 2.6309703758339307 2.0 16.977969307450373 2.107036535708938 2.0 29.189842641009687 2.3756044927516231 2.0 35.391150581548516 1.1651235201102785 2.0 50.619984405889248 1 2.0 57.781572325061049 3.7549691255216411 2.0 61.612012255649894 1.9034806457011488 2.0 63.248682248610301 4.7514900069099362 2.0 66.289091856849197 1.904005041398996 2.0 72.139111457071863 1 2.0 76.765009923043721 3.9095875036164838 2.0 81.108598606610769 1 2.0 87.862306041765535 3.7072402581929684 2.0 91.156743691566959 1.91010374351262 2.0 94.23615353939519 1 2.0 97.528435887052098 1.9174479804657418 2.0 100.34413047267155 1.93884834505923 2.0 4.0366052215366706 1.9383732469221768 2.0 5.6713555228463655 1 2.0 7.9349431759777378 4.053375141462741 2.0 14.233155697313725 1 2.0 21.344485490404473 1.9267608381354717 2.0 23.667061858174492 3.4627006790536856 2.0 35.816946690430427 2.8510324301532157 2.0 48.892950389941447 3.6427795134074601 2.0 56.301306354964638 3.915213716687854 2.0 60.332591771331586 3.9898605260562614 2.0 64.419160067333053 1.9100624442050753 2.0 68.036598686207441 4.4311113308462646 2.0 71.803857813543473 2.0794128809433312 2.0 74.395146496532249 1 2.0 80.045844293172536 1.941999907343414 2.0 86.722081017456247 2.7368928764331315 2.0 88.156952373466581 1.9415303946867155 2.0 93.621651530800321 4.543310966271779 2.0 95.772447968661069 1 2.0 102.06697757992664 3.316488165539925 2.0 1.9616539189268598 2.9792110905786666 2.0 9.6502815032577338 1.9179826089241168 2.0 26.638030061804098 1.9132584322455048 2.0 61.927477316083326 4.1178134605215764 2.0 68.04730467608168 1.9001121168329169 2.0 94.071969813481871 1.931490632497439 2.0 96.829297072937848 1 2.0 100.91146490552424 1 2.0 0.9428562848094042 2.824384290086849 2.0 6.4245104386159264 3.3236148077041872 2.0 8.7175223644092057 1.9191100392738007 2.0 14.553014404245774 3.2164540066414036 2.0 19.263479081663807 3.8881679618857663 2.0 24.216504525336706 1.9321013226830213 2.0 37.227813912079931 1.9232446280788014 2.0 49.113133442261521 1.066539705860498 2.0 54.342916366585861 1.9624471204851752 2.0 57.988645219916584 1.9357271635036171 2.0 63.625292217512929 3.4742490198208391 2.0 68.803232312273053 3.1829411429138763 2.0 70.812738234679657 4.1274277064051699 2.0 74.50393313454272 1.9547381168519542 2.0 78.848633824512149 1 2.0 83.660338816842668 2.3471783672159585 2.0 88.983739267957375 3.7148284218315957 2.0 95.254730952382985 1.1590282082246515 2.0 96.487936971935511 4.3138451154141437 2.0 101.83871236711015 1 2.0 1.9685346223903988 4.192145142473735 2.0 11.391978233541231 1.9293811997597934 2.0 27.755895820722447 4.3008977592315096 2.0 62.369902314242886 1.9036767796785985 2.0 65.156376848240598 4.4815390986329904 2.0 92.46110017260709 1.9159585138211037 2.0 99.079981390098894 3.7996670926838005 2.0 99.393612088816624 1.9295652534847898 2.0 4.2543372250100298 3.0827208195681206 2.0 19.847691674511847 1.9268351281267762 2.0 25.930388219971388 3.7325075535252692 2.0 59.94457458799355 1.9210070066628013 2.0 64.160706265755437 1 2.0 73.058213882257675 2.285645546074806 2.0 79.109205926826576 3.5377743951920331 2.0 86.869104832846816 1 2.0 89.067558546780234 1.9226920855387646 2.0 3.4200431394490414 3.7610154102684192 2.0 10.219531404417703 3.7568709598131123 2.0 25.499678234085973 1.9011256912290802 2.0 67.587889289423785 2.2444109317698846 2.0 92.190155156474688 4.2144649090712134 2.0 2.5070694088820482 1.9032443033833153 2.0 6.1011854105644838 1.9525270377603912 2.0 7.9062399718143581 1 2.0 13.812527196069604 2.4289288252341841 2.0 18.595944016207657 1 2.0 22.355520030560513 2.6807009052031661 2.0 38.604349850166358 3.1469472062531119 2.0 48.048473791906183 2.5786833976561492 2.0 55.69875868095545 1.9272424968234851 2.0 59.140154319674402 3.6775106210329263 2.0 63.043214548910193 1 2.0 68.692911995844483 1.9047243279690556 2.0 69.935158099628964 1 2.0 76.147226143269478 1 2.0 77.839503112366771 2.9850113067136737 2.0 85.450997257498642 3.2289868984211223 2.0 90.081880131732234 3.2534263042157132 2.0 95.076016089724618 2.3327993222563448 2.0 96.52995719218049 2.0240016690690132 2.0 102.98717502085728 1.9457237147523607 2.0 1.9715355200842086 4.9290380615286704 2.0 12.584507618666148 1 2.0 28.004391796818059 1.9226188124356871 2.0 60.824802565919853 1.8917841262775641 2.0 65.220914791836947 1.9032570812940151 2.0 91.440245482839472 3.2420487820405754 2.0 97.894549179238879 2.7376749590451324 2.0 100.70936680272935 2.9796896797432928 2.0 3.2797007677538055 1.9125525257138782 2.0 21.3322820410989 3.2302331117615655 2.0 22.326322353164983 4.2371364026877423 2.0 59.431771043957028 1.9168980887596261 2.0 65.702604974448533 1.8948744344219268 2.0 71.276078653254729 1.9265406793818449 2.0 80.524282622852823 2.9192788195397079 2.0 86.771769243141335 1.6115244354595357 2.0 88.152573872944643 1 2.0 1.9282560989421218 1.8874940011174133 2.0 10.47897373991238 1.9086394719673385 2.0 27.361024481247302 2.613222605941472 2.0 67.069657624099221 1.8835668524580782 2.0 93.229276000772131 1.913697971075512 2.0 8.1053208698480308 2.647934671580785 2.0 15.051424841218516 1.3474020173637489 2.0 20.453066742354583 1.9253769570758967 2.0 23.664554046738132 1 2.0 37.143107448108061 2.9906398962212948 2.0 55.734986054557382 2.8157248281623546 2.0 57.553569351150351 1.9289482334993173 2.0 64.596183917057118 3.0333173793737185 2.0 69.587135208663781 3.73641842862249 2.0 72.44513687004897 3.7361185257692724 2.0 75.445196646621866 2.7207092655786256 2.0 84.680524645092063 1 2.0 90.555324006147544 4.4779201761174638 2.0 97.737369836891645 3.7834191971985951 2.0 3.8658412947582503 4.7824293846419463 2.0 10.929988468861151 3.1378379429357657 2.0 62.571120076360359 2.9198391504407559 2.0 66.548872950236998 4.6236264311530269 2.0 91.722246714932794 1.9042780129167411 2.0 98.560073455875866 1.9131447943918367 2.0 19.216859493901122 2.5759083435016414 2.0 24.999214459521333 4.6793215569498026 2.0 61.042514416909498 2.5232734780566672 2.0 90.425397606158967 2.157141779757719 2.0 9.3514639847064132 4.7257601313153312 2.0 25.243438125262777 2.0985872057716288 2.0 66.72320189574593 3.2175984223991478 2.0 93.016077558873292 3.0852864171581071 2.0 </DataArray>
</Points>
<Cells>
<DataArray Name="connectivity" format="ascii" type="Int32">0</DataArray>
<DataArray Name="offsets" format="ascii" type="Int32">0</DataArray>
<DataArray Name="types" format="ascii" type="UInt8">1</DataArray>
</Cells>
<PointData>
<DataArray Name="Points" NumberOfComponents="3" format="ascii" type="Float32">1.9496324222502104 1.9265456399339744 2.0 5.2245147543917501 1.9846665185207257 2.0 6.7987977895153975 1 2.0 7.2880122384783927 1.9499024577078754 2.0 13.240543330305149 1.9506805816562762 2.0 16.167375920953983 1 2.0 17.953491875330553 1.9471913795261735 2.0 22.211512111170027 1 2.0 22.91660767178864 1.9349447322986011 2.0 28.780985517088677 1 2.0 31.009760827023303 1 2.0 33.737624552196614 1 2.0 39.145253566055338 1.9412275440596654 2.0 40.444763051039693 1 2.0 43.0 1 2.0 45.757412801363081 1 2.0 47.266439822722269 1.9438162577518998 2.0 52.23633979604935 1 2.0 53.993877182493982 1 2.0 56.709174860544607 1.933735883825622 2.0 58.713289901810981 1.9322240902313583 2.0 63.378378918998813 1.9230075961604172 2.0 69.418740388923126 1.9258856898632115 2.0 70.403839749717235 1.9313235149949004 2.0 73.210347990038173 1 2.0 76.501128987705059 1.9412360373472137 2.0 77.945413761338472 1.9326743394344794 2.0 82.425299910779216 1 2.0 83.644638721107626 1 2.0 85.422880344626961 1.9442667293852558 2.0 89.898596632131714 1.91185486565538 2.0 94.515750928330306 3.3121125744029141 2.0 96.021681245861458 2.8428726892999858 2.0 103.83489517703357 1.9496376378380373 2.0 2.7350231986732174 6.1229989244151399 2.0 4.4428794753834113 1 2.0 12.23822773807612 1.9509588611485373 2.0 15.794144541239319 2.6309703758339307 2.0 16.977969307450373 2.107036535708938 2.0 29.189842641009687 2.3756044927516231 2.0 35.391150581548516 1.1651235201102785 2.0 50.619984405889248 1 2.0 57.781572325061049 3.7549691255216411 2.0 61.612012255649894 1.9034806457011488 2.0 63.248682248610301 4.7514900069099362 2.0 66.289091856849197 1.904005041398996 2.0 72.139111457071863 1 2.0 76.765009923043721 3.9095875036164838 2.0 81.108598606610769 1 2.0 87.862306041765535 3.7072402581929684 2.0 91.156743691566959 1.91010374351262 2.0 94.23615353939519 1 2.0 97.528435887052098 1.9174479804657418 2.0 100.34413047267155 1.93884834505923 2.0 4.0366052215366706 1.9383732469221768 2.0 5.6713555228463655 1 2.0 7.9349431759777378 4.053375141462741 2.0 14.233155697313725 1 2.0 21.344485490404473 1.9267608381354717 2.0 23.667061858174492 3.4627006790536856 2.0 35.816946690430427 2.8510324301532157 2.0 48.892950389941447 3.6427795134074601 2.0 56.301306354964638 3.915213716687854 2.0 60.332591771331586 3.9898605260562614 2.0 64.419160067333053 1.9100624442050753 2.0 68.036598686207441 4.4311113308462646 2.0 71.803857813543473 2.0794128809433312 2.0 74.395146496532249 1 2.0 80.045844293172536 1.941999907343414 2.0 86.722081017456247 2.7368928764331315 2.0 88.156952373466581 1.9415303946867155 2.0 93.621651530800321 4.543310966271779 2.0 95.772447968661069 1 2.0 102.06697757992664 3.316488165539925 2.0 1.9616539189268598 2.9792110905786666 2.0 9.6502815032577338 1.9179826089241168 2.0 26.638030061804098 1.9132584322455048 2.0 61.927477316083326 4.1178134605215764 2.0 68.04730467608168 1.9001121168329169 2.0 94.071969813481871 1.931490632497439 2.0 96.829297072937848 1 2.0 100.91146490552424 1 2.0 0.9428562848094042 2.824384290086849 2.0 6.4245104386159264 3.3236148077041872 2.0 8.7175223644092057 1.9191100392738007 2.0 14.553014404245774 3.2164540066414036 2.0 19.263479081663807 3.8881679618857663 2.0 24.216504525336706 1.9321013226830213 2.0 37.227813912079931 1.9232446280788014 2.0 49.113133442261521 1.066539705860498 2.0 54.342916366585861 1.9624471204851752 2.0 57.988645219916584 1.9357271635036171 2.0 63.625292217512929 3.4742490198208391 2.0 68.803232312273053 3.1829411429138763 2.0 70.812738234679657 4.1274277064051699 2.0 74.50393313454272 1.9547381168519542 2.0 78.848633824512149 1 2.0 83.660338816842668 2.3471783672159585 2.0 88.983739267957375 3.7148284218315957 2.0 95.254730952382985 1.1590282082246515 2.0 96.487936971935511 4.3138451154141437 2.0 101.83871236711015 1 2.0 1.9685346223903988 4.192145142473735 2.0 11.391978233541231 1.9293811997597934 2.0 27.755895820722447 4.3008977592315096 2.0 62.369902314242886 1.9036767796785985 2.0 65.156376848240598 4.4815390986329904 2.0 92.46110017260709 1.9159585138211037 2.0 99.079981390098894 3.7996670926838005 2.0 99.393612088816624 1.9295652534847898 2.0 4.2543372250100298 3.0827208195681206 2.0 19.847691674511847 1.9268351281267762 2.0 25.930388219971388 3.7325075535252692 2.0 59.94457458799355 1.9210070066628013 2.0 64.160706265755437 1 2.0 73.058213882257675 2.285645546074806 2.0 79.109205926826576 3.5377743951920331 2.0 86.869104832846816 1 2.0 89.067558546780234 1.9226920855387646 2.0 3.4200431394490414 3.7610154102684192 2.0 10.219531404417703 3.7568709598131123 2.0 25.499678234085973 1.9011256912290802 2.0 67.587889289423785 2.2444109317698846 2.0 92.190155156474688 4.2144649090712134 2.0 2.5070694088820482 1.9032443033833153 2.0 6.1011854105644838 1.9525270377603912 2.0 7.9062399718143581 1 2.0 13.812527196069604 2.4289288252341841 2.0 18.595944016207657 1 2.0 22.355520030560513 2.6807009052031661 2.0 38.604349850166358 3.1469472062531119 2.0 48.048473791906183 2.5786833976561492 2.0 55.69875868095545 1.9272424968234851 2.0 59.140154319674402 3.6775106210329263 2.0 63.043214548910193 1 2.0 68.692911995844483 1.9047243279690556 2.0 69.935158099628964 1 2.0 76.147226143269478 1 2.0 77.839503112366771 2.9850113067136737 2.0 85.450997257498642 3.2289868984211223 2.0 90.081880131732234 3.2534263042157132 2.0 95.076016089724618 2.3327993222563448 2.0 96.52995719218049 2.0240016690690132 2.0 102.98717502085728 1.9457237147523607 2.0 1.9715355200842086 4.9290380615286704 2.0 12.584507618666148 1 2.0 28.004391796818059 1.9226188124356871 2.0 60.824802565919853 1.8917841262775641 2.0 65.220914791836947 1.9032570812940151 2.0 91.440245482839472 3.2420487820405754 2.0 97.894549179238879 2.7376749590451324 2.0 100.70936680272935 2.9796896797432928 2.0 3.2797007677538055 1.9125525257138782 2.0 21.3322820410989 3.2302331117615655 2.0 22.326322353164983 4.2371364026877423 2.0 59.431771043957028 1.9168980887596261 2.0 65.702604974448533 1.8948744344219268 2.0 71.276078653254729 1.9265406793818449 2.0 80.524282622852823 2.9192788195397079 2.0 86.771769243141335 1.6115244354595357 2.0 88.152573872944643 1 2.0 1.9282560989421218 1.8874940011174133 2.0 10.47897373991238 1.9086394719673385 2.0 27.361024481247302 2.613222605941472 2.0 67.069657624099221 1.8835668524580782 2.0 93.229276000772131 1.913697971075512 2.0 8.1053208698480308 2.647934671580785 2.0 15.051424841218516 1.3474020173637489 2.0 20.453066742354583 1.9253769570758967 2.0 23.664554046738132 1 2.0 37.143107448108061 2.9906398962212948 2.0 55.734986054557382 2.8157248281623546 2.0 57.553569351150351 1.9289482334993173 2.0 64.596183917057118 3.0333173793737185 2.0 69.587135208663781 3.73641842862249 2.0 72.44513687004897 3.7361185257692724 2.0 75.445196646621866 2.7207092655786256 2.0 84.680524645092063 1 2.0 90.555324006147544 4.4779201761174638 2.0 97.737369836891645 3.7834191971985951 2.0 3.8658412947582503 4.7824293846419463 2.0 10.929988468861151 3.1378379429357657 2.0 62.571120076360359 2.9198391504407559 2.0 66.548872950236998 4.6236264311530269 2.0 91.722246714932794 1.9042780129167411 2.0 98.560073455875866 1.9131447943918367 2.0 19.216859493901122 2.5759083435016414 2.0 24.999214459521333 4.6793215569498026 2.0 61.042514416909498 2.5232734780566672 2.0 90.425397606158967 2.157141779757719 2.0 9.3514639847064132 4.7257601313153312 2.0 25.243438125262777 2.0985872057716288 2.0 66.72320189574593 3.2175984223991478 2.0 93.016077558873292 3.0852864171581071 2.0 </DataArray>
<DataArray Name="forces" NumberOfComponents="3" format="ascii" type="Float32">-4.8804367469247047 -2.2469186619038721 0.0 1.7382395681233829 1.5553019980157932 0.0 -0.62707605406937383 -3.0549840020757104 0.0 -1.8299498518214878 0.016272796721452126 0.0 1.6581637018093196 0.091670202773048381 0.0 -0.21586195228056049 -0.93730780271839498 0.0 -3.2259820697174257 -0.2464209076987417 0.0 0.070797657835890537 -2.9700437212790161 0.0 -0.084101671121064259 -1.4330768841481405 0.0 1.3471145678613849 -2.8652146106052321 0.0 0.28719612683563428 -0.21567836023033152 0.0 -0.13151849987021216 -0.014358508602796378 0.0 1.9164856975386642 -0.82429506928636564 0.0 0.8358977436317071 -0.6377678428005884 0.0 0.0 0.0 0.0 -0.77597509324291536 -0.48276290570945124 0.0 -1.5064024487027949 -0.57345804286413271 0.0 -0.1690155197649853 -0.14259153901738225 0.0 -1.2274039704500388 -1.9002670870778211 0.0 -3.2007416239814495 -1.5502099441952089 0.0 -1.6889667696730277 -1.6966972946066705 0.0 -0.46258647259792113 -2.5897423515892419 0.0 3.2024067272293504 -2.3108654451398398 0.0 2.6238623346854739 -1.7839597891267205 0.0 0.48003265732786321 -1.9019449430692066 0.0 1.101333887100165 -0.823472100334802 0.0 1.4293833865570962 -1.6530697696321268 0.0 -0.56028810024926667 -0.66243039203250875 0.0 -0.8382446783982811 -1.6480720167627703 0.0 -1.5261088794423638 -0.52980896520151499 0.0 -2.3770261382807294 -3.6704017403675433 0.0 1.5000332960730289 5.4426597164848518 0.0 -0.01174238170005204 3.7985484561804417 0.0 4.1069748643258146 -0.0093872941904908497 0.0 1.113644629193054 4.5893363427366394 0.0 0.8571249660918222 -3.634016307346791 0.0 1.7271976817554555 0.11863448258604181 0.0 0.5463590096940425 0.16657521501265737 0.0 -0.98177240103139751 0.33151814334866525 0.0 5.3132462830069827 1.9568651864888442 0.0 -0.55042054821486697 -0.32029109777175135 0.0 0.10776529916888483 -0.015677489148327919 0.0 -0.42374979849329625 3.1255918805701208 0.0 0.41132521454957471 -4.4818334712021848 0.0 -0.91152408112720296 2.6735155803420327 0.0 0.30792486212879133 -4.4310214181307357 0.0 1.0711698621448658 -3.0498288820565214 0.0 0.2809362826937013 2.0568539633625424 0.0 0.48358338347789298 -0.83998577566421972 0.0 -1.1314635585272728 2.169664779513238 0.0 -1.1490543420835704 -3.8400791645298438 0.0 0.72400978419768813 -3.7323479249905125 0.0 -0.50265928319923114 -3.1284490741928717 0.0 1.8239833222712569 -1.0548308772152997 0.0 5.1309877759362728 -1.1008661743262478 0.0 0.3221153933396545 -2.9444466593751191 0.0 -1.5022364946532631 1.8487208919082943 0.0 0.66721543993472077 -2.2327385192250864 0.0 0.33395923627199536 -2.2260667318055676 0.0 -1.0428420301080068 5.4873626841223553 0.0 -1.3009036141746724 0.58150385829016948 0.0 0.55088651790394705 0.62736746892062512 0.0 -0.2973382556998575 2.2388622915030334 0.0 -1.2178654124651422 9.6896395756198288 0.0 -1.4749281738761815 -3.8440809185781526 0.0 1.2256259818325752 2.3730743855464524 0.0 4.1645731213723387 0.44329154425022721 0.0 -0.33091003188954771 -2.4635354151250426 0.0 1.4065342379007912 -0.74945585087670896 0.0 -1.8896366321630464 3.7050221595709645 0.0 -1.8796624528774108 -0.7949499350726964 0.0 0.58351260440660879 1.5488443444770965 0.0 0.51717744360371998 -2.662508701339708 0.0 0.66440771530038456 1.8180366448103857 0.0 -3.7155970473622495 4.467682396685885 0.0 -0.60122109275937263 -3.0766455035076437 0.0 1.1582342885922583 -3.5344011965806246 0.0 -0.19388739789013348 3.629901455172972 0.0 2.0300190923319894 -4.8082317775345587 0.0 2.0095401228438883 -1.7677667054629447 0.0 -0.10268901848886647 -2.8920821560990042 0.0 0.54239989178017023 -2.7610691202553066 0.0 -5.5370200420874447 1.0238072252646611 0.0 -0.83610881786720992 2.2703440616689106 0.0 -1.1008848706686445 -2.9674015661571134 0.0 2.1421117169630386 4.7184009724188041 0.0 -1.4524840908979311 5.8301223915064924 0.0 -1.8084593021728346 -1.7085930275563592 0.0 -0.73852269445150553 -2.566774813018637 0.0 0.29620487408585155 -0.2779747875432565 0.0 -3.963621349375686 1.2318054058187475 0.0 -1.4448460522762407 -1.3572621204549251 0.0 -0.95854261831908405 7.7261562198442189 0.0 1.9796362454802909 7.3464436648620115 0.0 1.1460734789718052 6.8081926947493878 0.0 -0.15301265964945276 0.48483073888817296 0.0 0.15746495186618459 -1.7869734784426901 0.0 -2.9503155800943208 2.759598972450239 0.0 -1.7106693038470531 6.5936720232792609 0.0 0.33186608339696122 -2.3506985875371766 0.0 -0.21944389482687743 5.720280020073627 0.0 0.51552522077159646 -1.8848431334231321 0.0 -3.048881681478147 4.3804695886206781 0.0 1.502300315553402 -1.9721631348309341 0.0 0.81050144003388325 1.9316003613706432 0.0 0.23374313179307893 -4.4628287957019781 0.0 -0.42046616467562381 8.7827808591802103 0.0 0.87896156462424246 -3.2727730236573729 0.0 -0.15254980701453141 2.7610487545830944 0.0 0.86860200806265397 -1.9543289922532976 0.0 2.2901867041270543 3.334560693334284 0.0 -2.1299307388583721 -2.2188682994074078 0.0 0.74486564465920668 6.6396681630279657 0.0 -0.081273565613958709 -2.7835922632959025 0.0 -0.37369685468184188 -5.4699268101560987 0.0 1.3543042641926271 0.19113290157980772 0.0 0.12912688355941948 1.6580199462617446 0.0 -0.6130324609686908 -3.3929619371894995 0.0 -1.8218984693847664 -2.6203141936501666 0.0 2.4956568934197061 2.2268790245271193 0.0 1.4082279401056914 6.4000480654916849 0.0 2.0921473705416509 -4.7100200717155687 0.0 1.2604457617891633 0.79401571322914544 0.0 -0.38037945255999744 7.9745471644566246 0.0 1.2847044984374152 -4.5047341899649158 0.0 0.14843365959639687 0.41656663935044314 0.0 -0.13380238743469336 -3.7537684770704871 0.0 1.5215517445103655 0.73019884837602866 0.0 -0.66107034158995448 -2.3528203867754951 0.0 -0.29776544911533032 1.7115063973546398 0.0 0.4402707465331015 1.9397980020208889 0.0 1.108275123644614 0.72605065284818204 0.0 -3.6598324926620123 -2.1793957409524101 0.0 -1.2575578833150387 3.5839820170578611 0.0 -0.21289970434435204 -5.274008239367987 0.0 2.5523456404602971 -4.3613251419761099 0.0 0.2065094415858334 -4.9041497898306528 0.0 -0.080702439682941052 -3.0561638290234763 0.0 0.62932825771625378 2.0575966234759395 0.0 -0.56196954982592595 2.2594292774280147 0.0 0.31006371515508491 3.1788687483180853 0.0 0.97399642990880819 -0.48805955350300967 0.0 -0.59424725982468918 -0.89703794768519063 0.0 1.0807871156756874 -0.38863233445954631 0.0 -2.7581055109148713 5.892488415892136 0.0 0.83022205162671203 -3.702245284839941 0.0 3.8209914725353133 -2.6274140932442482 0.0 -1.1662529626282365 -5.615184046239909 0.0 -1.6760866083224157 -4.5034960564728186 0.0 -0.55728168796627686 3.2183456901679284 0.0 0.12916556400631429 2.2347348618293399 0.0 1.747828349357611 5.1039438961463217 0.0 3.6801102188044634 -3.6028009952359925 0.0 0.040299866112019855 3.1969125686051179 0.0 -0.7352746925681749 1.6951374973704645 0.0 -2.1927131279578025 -3.1817315985717149 0.0 0.0052969767732793382 -5.3157443252751353 0.0 1.5214852958232017 -2.2473993215261805 0.0 1.0168995194210273 1.3657570807290309 0.0 -0.68685685623152515 -1.0405254918246942 0.0 -0.46704260755785137 -3.4759318464786415 0.0 -6.9517254299976923 -6.0308817116014986 0.0 0.43826274105555985 -3.981961799675986 0.0 2.5719152535003404 3.1813004833114307 0.0 -0.36924091008309923 -6.4114082622898554 0.0 1.1956568611313412 -3.4918114681580326 0.0 -2.1456821384424041 3.2915551207209566 0.0 1.1464883381418247 -0.82948126045980941 0.0 0.85818213883046368 -2.3601598186336621 0.0 -0.54848627177953457 -3.550505895294449 0.0 -0.45529431790586217 1.9337680181643064 0.0 -1.257873311579673 3.2442128193655573 0.0 -3.9581220981893956 -2.0141160049551239 0.0 -0.84836741005478944 5.885814397173859 0.0 0.51597378597503818 3.5284744571393665 0.0 2.7201245560741483 4.9237838691768996 0.0 -1.3421138030277859 3.7041721918803199 0.0 0.49490553603940124 -1.9692670548898745 0.0 -0.14479849938017106 1.5528354143946492 0.0 0.99512851487849363 2.2737928859904999 0.0 2.5419999661267232 0.16037072641950012 0.0 1.7491368703230794 2.7490102973280952 0.0 -0.37923876982921101 5.6115594474748827 0.0 0.99233241515640136 9.2801818493337187 0.0 0.66358173334027537 -4.4045714619171248 0.0 0.44351796375577007 -3.5454122950225413 0.0 -1.8979332899294803 1.2157271686972957 0.0 -0.30236110535134114 1.7601626373035777 0.0 -0.57872442394284218 4.3480717319443078 0.0 0.30024747587397371 0.20537762199130594 0.0 -0.36988899980975765 6.2208713183609285 0.0 -2.4387414345411371 -0.11680201516272232 0.0 0.32659772138021947 7.7592307588755869 0.0 0.57754020599912259 3.2497890265921789 0.0 </DataArray>
<DataArray Name="radii" format="ascii" type="Float32">2 2 1 2 2 1 2 1 2 1 1 1 2 1 1 1 2 1 1 2 2 2 2 2 1 2 2 1 1 2 2 2 2 2 2 1 2 1 1 2 1 1 1 2 1 2 1 1 1 1 2 1 2 2 2 1 1 1 2 2 1 1 1 2 2 1 2 1 2 2 2 1 1 1 2 2 2 1 2 2 1 1 1 1 2 2 2 2 2 1 2 2 2 2 2 2 1 2 2 1 2 1 2 2 1 2 2 2 1 2 1 2 2 2 1 1 1 1 2 1 2 2 2 2 2 1 1 1 1 1 1 1 2 1 1 2 1 1 1 1 1 1 1 2 2 1 2 2 2 1 1 2 2 1 1 2 2 2 1 1 1 2 2 2 2 2 2 1 2 1 1 1 2 2 1 2 2 1 1 1 1 1 2 2 2 2 1 1 2 1 2 2 2 1 </DataArray>
</PointData>
<CellData/>
</Piece>
</UnstructuredGrid>
</VTKFile>
