<?xml version="1.0" ?>
<VTKFile byte_order="LittleEndian" type="UnstructuredGrid" version="0.1">
<UnstructuredGrid>
<Piece NumberOfCells="0" NumberOfPoints="82">
<Points>
<DataArray NumberOfComponents="3" format="ascii" type="Float32">1.7941188358145048 1 2.0 4.8830458879232346 2.3171679436582964 2.0 7.2583241300667494 1 2.0 8.6473089403655337 1.4987849309897274 2.0 12.738886972695088 2.2682491300475154 2.0 16.0 1 2.0 19.470327013836627 2.2560585206431907 2.0 22.041083356029208 1 2.0 24.035053525225681 1.4576545911805976 2.0 28.000110618634078 1 2.0 31.0 1 2.0 33.906821345684563 1 2.0 37.897619193369628 1.236471018580154 2.0 40.019502703559873 1 2.0 43.0 1 2.0 46.0 1 2.0 48.385326165373129 1.7668143367579054 2.0 52.0 1 2.0 54.85067687273289 1 2.0 56.896027409247658 1.4571083411838675 2.0 59.828995417625748 2.3175278404714525 2.0 64.088429771915116 2.0199921872359416 2.0 68.483191615755018 1.9647256449088657 2.0 70.059683212124824 2.3277625698256394 2.0 73.151930405541506 1 2.0 75.637189322351844 1.9721646566817037 2.0 78.473560668609167 2.3157261031044176 2.0 82.248512610824662 1 2.0 84.741025497159825 1 2.0 86.295824182163628 1.5492912239521832 2.0 90.490156402905086 1.8983379799877769 2.0 94.058649706130183 2.4966419599118828 2.0 96.060942547041023 2.5406653900716778 2.0 101.80721717814113 1.2797776706608144 2.0 1.8432028871563926 4.3125409562948169 2.0 3.8501468604607454 1 2.0 11.120048236725527 2.1728222704890348 2.0 14.5994160311204 2.816231137234595 2.0 17.704141582917618 2.46100352107822 2.0 26.638193924874663 3.2344374079402947 2.0 35.436708687517502 1.8328180050644947 2.0 49.961349085097467 1 2.0 58.281450760259624 2.969630717042544 2.0 61.562877469474763 1.4228327858316396 2.0 63.328976538076461 3.3560697163703854 2.0 65.965186604127965 2.1276474013766609 2.0 71.787370590205384 1 2.0 76.794983491952095 3.0738270719877865 2.0 80.604323994599966 1.5256639183976775 2.0 88.564020766840898 2.5923118597747363 2.0 91.670548385880537 1.1551683751836253 2.0 94.288885892470745 1 2.0 97.986197511766576 1.6247295955847476 2.0 99.178707788845969 1.8200570998515218 2.0 2.2977560425792705 2.1088888133191555 2.0 6.0975989773946502 1.6426689884656602 2.0 9.0733726590008121 3.0222775593557984 2.0 13.784917712041002 1.138782589406758 2.0 20.324491317184318 1 2.0 24.449013317780736 3.129210599988308 2.0 37.286808065088778 2.6824705022010962 2.0 48.49068467267783 3.4375371325696245 2.0 56.537724192025351 3.1013773636705686 2.0 60.165578782290595 1 2.0 65.028097114449864 1 2.0 67.792886735119097 3.4381947704057723 2.0 70.3537836787999 1 2.0 74.356836244678192 1.4888782564862559 2.0 78.97755837918541 1 2.0 87.27232368880567 2.610083459279013 2.0 89.278928265683348 1.5451342699735531 2.0 93.094135135167107 3.3394347172918173 2.0 95.22076204823631 1.8693044824034262 2.0 101.96055303457854 2.9271763000838895 2.0 2.1429583891089852 3.1330329951358866 2.0 10.185728732581318 1 2.0 25.702305094428503 1.9566534059042699 2.0 62.276222651801959 2.4942370508860825 2.0 67.162665714663703 1.4456320736633628 2.0 92.318858590302611 2.2433335072080145 2.0 96.956946801168257 1.8992375374431412 2.0 100.46319349088054 1.959813668146412 2.0 </DataArray>
</Points>
<Cells>
<DataArray Name="connectivity" format="ascii" type="Int32">0</DataArray>
<DataArray Name="offsets" format="ascii" type="Int32">0</DataArray>
<DataArray Name="types" format="ascii" type="UInt8">1</DataArray>
</Cells>
<PointData>
<DataArray Name="Points" NumberOfComponents="3" format="ascii" type="Float32">1.7941188358145048 1 2.0 4.8830458879232346 2.3171679436582964 2.0 7.2583241300667494 1 2.0 8.6473089403655337 1.4987849309897274 2.0 12.738886972695088 2.2682491300475154 2.0 16.0 1 2.0 19.470327013836627 2.2560585206431907 2.0 22.041083356029208 1 2.0 24.035053525225681 1.4576545911805976 2.0 28.000110618634078 1 2.0 31.0 1 2.0 33.906821345684563 1 2.0 37.897619193369628 1.236471018580154 2.0 40.019502703559873 1 2.0 43.0 1 2.0 46.0 1 2.0 48.385326165373129 1.7668143367579054 2.0 52.0 1 2.0 54.85067687273289 1 2.0 56.896027409247658 1.4571083411838675 2.0 59.828995417625748 2.3175278404714525 2.0 64.088429771915116 2.0199921872359416 2.0 68.483191615755018 1.9647256449088657 2.0 70.059683212124824 2.3277625698256394 2.0 73.151930405541506 1 2.0 75.637189322351844 1.9721646566817037 2.0 78.473560668609167 2.3157261031044176 2.0 82.248512610824662 1 2.0 84.741025497159825 1 2.0 86.295824182163628 1.5492912239521832 2.0 90.490156402905086 1.8983379799877769 2.0 94.058649706130183 2.4966419599118828 2.0 96.060942547041023 2.5406653900716778 2.0 101.80721717814113 1.2797776706608144 2.0 1.8432028871563926 4.3125409562948169 2.0 3.8501468604607454 1 2.0 11.120048236725527 2.1728222704890348 2.0 14.5994160311204 2.816231137234595 2.0 17.704141582917618 2.46100352107822 2.0 26.638193924874663 3.2344374079402947 2.0 35.436708687517502 1.8328180050644947 2.0 49.961349085097467 1 2.0 58.281450760259624 2.969630717042544 2.0 61.562877469474763 1.4228327858316396 2.0 63.328976538076461 3.3560697163703854 2.0 65.965186604127965 2.1276474013766609 2.0 71.787370590205384 1 2.0 76.794983491952095 3.0738270719877865 2.0 80.604323994599966 1.5256639183976775 2.0 88.564020766840898 2.5923118597747363 2.0 91.670548385880537 1.1551683751836253 2.0 94.288885892470745 1 2.0 97.986197511766576 1.6247295955847476 2.0 99.178707788845969 1.8200570998515218 2.0 2.2977560425792705 2.1088888133191555 2.0 6.0975989773946502 1.6426689884656602 2.0 9.0733726590008121 3.0222775593557984 2.0 13.784917712041002 1.138782589406758 2.0 20.324491317184318 1 2.0 24.449013317780736 3.129210599988308 2.0 37.286808065088778 2.6824705022010962 2.0 48.49068467267783 3.4375371325696245 2.0 56.537724192025351 3.1013773636705686 2.0 60.165578782290595 1 2.0 65.028097114449864 1 2.0 67.792886735119097 3.4381947704057723 2.0 70.3537836787999 1 2.0 74.356836244678192 1.4888782564862559 2.0 78.97755837918541 1 2.0 87.27232368880567 2.610083459279013 2.0 89.278928265683348 1.5451342699735531 2.0 93.094135135167107 3.3394347172918173 2.0 95.22076204823631 1.8693044824034262 2.0 101.96055303457854 2.9271763000838895 2.0 2.1429583891089852 3.1330329951358866 2.0 10.185728732581318 1 2.0 25.702305094428503 1.9566534059042699 2.0 62.276222651801959 2.4942370508860825 2.0 67.162665714663703 1.4456320736633628 2.0 92.318858590302611 2.2433335072080145 2.0 96.956946801168257 1.8992375374431412 2.0 100.46319349088054 1.959813668146412 2.0 </DataArray>
<DataArray Name="forces" NumberOfComponents="3" format="ascii" type="Float32">-0.21683679171976047 -0.55649710583042766 0.0 -0.32532612630889163 0.31960128170746355 0.0 0.1318529087144798 -0.34798098840882746 0.0 0.063203978704795688 -0.089290927434863665 0.0 -0.059948696961755588 0.24908228059520041 0.0 0.0 0.0 0.0 -0.17516854744674784 0.26375644813031607 0.0 0.082017657538681066 0.0 0.0 -0.089587002810869343 -0.13473988714750496 0.0 0.0 0.0 0.0 0.0 0.0 0.0 -0.058401983546516732 -0.032426318920668565 0.0 0.11944015789327285 -0.28275582850524378 0.0 0.0 0.0 0.0 0.0 0.0 0.0 0.0 0.0 0.0 -0.048574106216035431 -0.14500706907657313 0.0 0.0 0.0 0.0 0.0 0.0 0.0 0.033166536320070883 -0.15538956630775572 0.0 -0.034452803197833698 0.4131589170038607 0.0 -0.1277228108489763 0.069580641773641011 0.0 0.33458580111639968 -0.087039608714194278 0.0 0.037278011892477134 0.49137254129903118 0.0 -0.02763795734984642 -0.19338746881159721 0.0 0.28459997179897178 0.031572131059375175 0.0 -0.15252956039868754 0.40985468179063816 0.0 0.077326063510969545 -0.025173731320470086 0.0 -0.12467081676625655 -0.04726224665019764 0.0 -0.15386293237964518 -0.23176758918968421 0.0 0.19809371393917413 0.33138266608062777 0.0 -0.022252027309576483 0.15768230381575526 0.0 0.010370786718056579 0.80077705602125626 0.0 0.27282094172981736 -0.34610116838328875 0.0 -0.15176433713839582 0.62237920984612594 0.0 -0.081664400317420768 -0.099059458422439128 0.0 0.033700409266491094 0.24055431252313772 0.0 0.0 0.0 0.0 0.0 0.0 0.0 0.16932366427982815 0.22490245262067421 0.0 0.058401983546516732 0.032426318920668565 0.0 0.03867768924630547 -0.01970768585139766 0.0 -0.03304784895343852 0.037877828024778071 0.0 0.0045707828382536286 -0.3388407961411572 0.0 0.23644256412872078 0.56030489279465445 0.0 -0.21698457287239925 0.48088706478048393 0.0 -0.041633769519862085 0.0 0.0 0.14519970130179033 0.13452515710120502 0.0 -0.0022054521056861509 0.049592849162898592 0.0 0.17772186080002073 0.4487948404356128 0.0 0.064599122069763426 -0.71792248756390653 0.0 -0.31724950067544244 -0.66607413725503695 0.0 0.15654589636135108 -0.26905279777943714 0.0 0.047976070889509725 0.02570514350626691 0.0 0.31942821440611968 -0.26282751992749509 0.0 -0.013324037920453946 0.01959262981284321 0.0 0.071426920210050454 0.24892339599851823 0.0 0.22640850235865204 -0.23944895320306958 0.0 0.093150889908066775 -0.26375644813031607 0.0 -0.068345491181141665 0.20282994441721994 0.0 -0.11944015789327285 0.28275582850524378 0.0 0.0098964169697299646 0.16471475492797077 0.0 -0.092866804934558095 0.15939781243650455 0.0 -0.20102848590132935 -0.5693616974300999 0.0 0.051326217917674721 -0.57549730672946986 0.0 -0.0926691694155935 0.20899499514062553 0.0 -0.27498905557919279 -0.46292613204901734 0.0 0.035026247781595854 0.027290180651017015 0.0 0.077408948993404142 -0.43427379963306667 0.0 -0.28700006729199795 0.29592779434165672 0.0 -0.21583783588599936 -0.58968902182646055 0.0 -0.13312850502289664 0.77047225449555079 0.0 0.11756149028165613 -0.27114191872625143 0.0 0.02451793841707349 0.20987196940392244 0.0 0.049172914452036628 0.19694541591179682 0.0 -0.046329457745947128 -0.30197357316796331 0.0 -0.011391170287817151 -0.29299250989038916 0.0 -0.068866699702776812 0.14004655765623214 0.0 0.049704143179852001 -0.37256614353811712 0.0 -0.018761238812637637 0.097448900048019593 0.0 -0.030712756783973498 -0.18562113139382444 0.0 0.23326785972200309 0.18656957061941903 0.0 </DataArray>
<DataArray Name="radii" format="ascii" type="Float32">1 1 1 1 1 1 1 1 1 1 1 1 1 1 1 1 1 1 1 1 1 1 1 1 1 1 1 1 1 1 1 1 1 1 1 1 1 1 1 1 1 1 1 1 1 1 1 1 1 1 1 1 1 1 1 1 1 1 1 1 1 1 1 1 1 1 1 1 1 1 1 1 1 1 1 1 1 1 1 1 1 1 </DataArray>
</PointData>
<CellData/>
</Piece>
</UnstructuredGrid>
</VTKFile>
