<?xml version="1.0" ?>
<VTKFile byte_order="LittleEndian" type="UnstructuredGrid" version="0.1">
<UnstructuredGrid>
<Piece NumberOfCells="0" NumberOfPoints="124">
<Points>
<DataArray NumberOfComponents="3" format="ascii" type="Float32">1.959757159493982 1.8735495049633755 2.0 5.1227535643977582 2.0816342301439921 2.0 7.2193421686178194 1 2.0 7.6261472709528997 1.9549918829309427 2.0 13.127641266808315 1.9398854375115633 2.0 16.02097600024851 1 2.0 18.403253375594208 1.9277964640938452 2.0 22.151375162243916 1 2.0 23.08722289016254 1.9376600672563584 2.0 28.239885726181075 1 2.0 31.0 1 2.0 33.821213181413164 1 2.0 38.821750788489261 1.9577226708730411 2.0 40.221148739754852 1 2.0 43.0 1 2.0 45.869263862197911 1 2.0 47.661500151236865 1.9484109077611271 2.0 52.096330591554491 1 2.0 54.359198593450557 1 2.0 56.806891169178058 1.923002804841434 2.0 58.855917783552265 2.1499256668344979 2.0 63.225080269444092 1.9113230998042607 2.0 68.993686775680004 1.8967956844298681 2.0 70.170174123849705 1.9189370570502549 2.0 73.155385676660799 1 2.0 76.094144791622512 1.9415159559177111 2.0 77.843961897627509 1.9464796495333185 2.0 82.464998720863747 1 2.0 84.169123864333528 1 2.0 85.7400684523423 1.9466380106271126 2.0 90.402947171260465 1.9233374422357603 2.0 94.377962079563503 2.6961234179847109 2.0 96.141572005373831 2.4642982789540517 2.0 103.12153336763717 1.9530247935558784 2.0 2.6124029296714375 5.464956789622077 2.0 4.271923557916355 1 2.0 12.033053117280623 1.9271911446149417 2.0 15.402552430492834 2.6384637502094792 2.0 17.166851173108846 2.1982794978689366 2.0 27.886318902761627 2.3487946386950869 2.0 35.394062766301914 1.4747572514626828 2.0 50.491595624162251 1 2.0 57.903131966688321 3.5068091956994345 2.0 61.507098122924802 1.9199352721010563 2.0 63.23048909332045 4.3660434493576252 2.0 66.060715509767704 1.9010208299183871 2.0 71.917727977931833 1 2.0 76.905439072400853 3.5095983327547224 2.0 81.01735055492442 1 2.0 88.14370639212818 3.3849484302502324 2.0 91.423611711132921 1.918938688097223 2.0 94.18223505404201 1 2.0 97.667345876704644 1.9262286961329578 2.0 99.917390263087796 1.9555229685485069 2.0 3.1022307017361723 1.8925953764604799 2.0 5.8763589978205628 1 2.0 8.4890899907716513 3.8029745379276965 2.0 14.391672024552459 1 2.0 21.312387867494255 1.9485188068344419 2.0 23.5252840795686 3.7368466278179757 2.0 36.648901929366751 2.870304729886052 2.0 48.610169251135353 3.5234235117320774 2.0 56.362225230847507 3.5587207112321475 2.0 60.254317694742284 2.7667591126249045 2.0 64.969491736968138 1.9091194093956265 2.0 67.757004033772475 4.1738921194130603 2.0 71.292450697395935 1.9409431346722643 2.0 74.124789344998391 1 2.0 80.010615267853112 1.9566870052694831 2.0 86.793781522427736 2.5617525275200554 2.0 88.322127867707792 1.9131524594548279 2.0 93.373253098700673 4.3134242376986123 2.0 95.531184824384198 1 2.0 101.77089042901721 3.3194314026814777 2.0 1.9557836512930553 2.7664886667608237 2.0 10.030517988091846 1.9103202179615735 2.0 26.491255787064375 1.9249449037917012 2.0 62.293567212467167 3.4048319754985616 2.0 67.63164756406637 1.8919242638416534 2.0 93.376050189386163 1.9182237616734257 2.0 96.782121047916718 1 2.0 100.89097274926196 1.4821680161107387 2.0 0.94225529487550719 2.2634190842495592 2.0 6.4190396190753178 2.6555774995324484 2.0 8.7509011073874792 1.9216729076951546 2.0 14.137908219933536 2.528704480361688 2.0 19.66244662120598 3.0565463769158483 2.0 23.977732734241386 1.9139900087542161 2.0 37.365058102315068 1.9330304548423762 2.0 49.26048606556369 1.3131414613576244 2.0 55.267474316449828 1.9546968946750023 2.0 58.345939179668292 1.9051849850709845 2.0 63.893559458118069 3.0212408506057082 2.0 68.699783219020333 2.753010389040714 2.0 70.856222632594523 3.8766807967320371 2.0 74.896029875988617 1.9702741894704481 2.0 78.763147160296626 1 2.0 84.1685205975228 2.0225302083199996 2.0 89.564966452536368 3.4616580354821931 2.0 95.209194396087511 1.8628351047485887 2.0 96.856136944548922 3.9302533709136327 2.0 101.86087199573139 1 2.0 1.9532096830344623 4.5880770971518059 2.0 11.208880243884991 2.0929448588699828 2.0 27.665766026439499 4.255932701695083 2.0 62.173903489717482 1.9103868024938417 2.0 65.437860152101294 3.5156504072636148 2.0 92.304608114799549 1.9067779526814888 2.0 98.597605496632426 3.5380876806270036 2.0 98.936799874803157 1.9265603751212477 2.0 3.7425890931077301 2.6854034217966509 2.0 20.284483686452855 1.9219494061079709 2.0 25.559662799134699 3.829620053370153 2.0 60.252145087560933 1.8978049726989543 2.0 64.153815050655538 1 2.0 72.528489611926759 2.1455013860272074 2.0 79.388279268074967 3.3076096959201693 2.0 87.224883830867398 1 2.0 89.532977765408532 1.9027501779770668 2.0 2.9612208613749447 3.8759398929896443 2.0 10.065422116281322 3.5544402883151309 2.0 25.615103070609887 1.9087066152407037 2.0 66.889461226750711 2.3413508300253754 2.0 92.419485921515999 3.4431660538738962 2.0 </DataArray>
</Points>
<Cells>
<DataArray Name="connectivity" format="ascii" type="Int32">0</DataArray>
<DataArray Name="offsets" format="ascii" type="Int32">0</DataArray>
<DataArray Name="types" format="ascii" type="UInt8">1</DataArray>
</Cells>
<PointData>
<DataArray Name="Points" NumberOfComponents="3" format="ascii" type="Float32">1.959757159493982 1.8735495049633755 2.0 5.1227535643977582 2.0816342301439921 2.0 7.2193421686178194 1 2.0 7.6261472709528997 1.9549918829309427 2.0 13.127641266808315 1.9398854375115633 2.0 16.02097600024851 1 2.0 18.403253375594208 1.9277964640938452 2.0 22.151375162243916 1 2.0 23.08722289016254 1.9376600672563584 2.0 28.239885726181075 1 2.0 31.0 1 2.0 33.821213181413164 1 2.0 38.821750788489261 1.9577226708730411 2.0 40.221148739754852 1 2.0 43.0 1 2.0 45.869263862197911 1 2.0 47.661500151236865 1.9484109077611271 2.0 52.096330591554491 1 2.0 54.359198593450557 1 2.0 56.806891169178058 1.923002804841434 2.0 58.855917783552265 2.1499256668344979 2.0 63.225080269444092 1.9113230998042607 2.0 68.993686775680004 1.8967956844298681 2.0 70.170174123849705 1.9189370570502549 2.0 73.155385676660799 1 2.0 76.094144791622512 1.9415159559177111 2.0 77.843961897627509 1.9464796495333185 2.0 82.464998720863747 1 2.0 84.169123864333528 1 2.0 85.7400684523423 1.9466380106271126 2.0 90.402947171260465 1.9233374422357603 2.0 94.377962079563503 2.6961234179847109 2.0 96.141572005373831 2.4642982789540517 2.0 103.12153336763717 1.9530247935558784 2.0 2.6124029296714375 5.464956789622077 2.0 4.271923557916355 1 2.0 12.033053117280623 1.9271911446149417 2.0 15.402552430492834 2.6384637502094792 2.0 17.166851173108846 2.1982794978689366 2.0 27.886318902761627 2.3487946386950869 2.0 35.394062766301914 1.4747572514626828 2.0 50.491595624162251 1 2.0 57.903131966688321 3.5068091956994345 2.0 61.507098122924802 1.9199352721010563 2.0 63.23048909332045 4.3660434493576252 2.0 66.060715509767704 1.9010208299183871 2.0 71.917727977931833 1 2.0 76.905439072400853 3.5095983327547224 2.0 81.01735055492442 1 2.0 88.14370639212818 3.3849484302502324 2.0 91.423611711132921 1.918938688097223 2.0 94.18223505404201 1 2.0 97.667345876704644 1.9262286961329578 2.0 99.917390263087796 1.9555229685485069 2.0 3.1022307017361723 1.8925953764604799 2.0 5.8763589978205628 1 2.0 8.4890899907716513 3.8029745379276965 2.0 14.391672024552459 1 2.0 21.312387867494255 1.9485188068344419 2.0 23.5252840795686 3.7368466278179757 2.0 36.648901929366751 2.870304729886052 2.0 48.610169251135353 3.5234235117320774 2.0 56.362225230847507 3.5587207112321475 2.0 60.254317694742284 2.7667591126249045 2.0 64.969491736968138 1.9091194093956265 2.0 67.757004033772475 4.1738921194130603 2.0 71.292450697395935 1.9409431346722643 2.0 74.124789344998391 1 2.0 80.010615267853112 1.9566870052694831 2.0 86.793781522427736 2.5617525275200554 2.0 88.322127867707792 1.9131524594548279 2.0 93.373253098700673 4.3134242376986123 2.0 95.531184824384198 1 2.0 101.77089042901721 3.3194314026814777 2.0 1.9557836512930553 2.7664886667608237 2.0 10.030517988091846 1.9103202179615735 2.0 26.491255787064375 1.9249449037917012 2.0 62.293567212467167 3.4048319754985616 2.0 67.63164756406637 1.8919242638416534 2.0 93.376050189386163 1.9182237616734257 2.0 96.782121047916718 1 2.0 100.89097274926196 1.4821680161107387 2.0 0.94225529487550719 2.2634190842495592 2.0 6.4190396190753178 2.6555774995324484 2.0 8.7509011073874792 1.9216729076951546 2.0 14.137908219933536 2.528704480361688 2.0 19.66244662120598 3.0565463769158483 2.0 23.977732734241386 1.9139900087542161 2.0 37.365058102315068 1.9330304548423762 2.0 49.26048606556369 1.3131414613576244 2.0 55.267474316449828 1.9546968946750023 2.0 58.345939179668292 1.9051849850709845 2.0 63.893559458118069 3.0212408506057082 2.0 68.699783219020333 2.753010389040714 2.0 70.856222632594523 3.8766807967320371 2.0 74.896029875988617 1.9702741894704481 2.0 78.763147160296626 1 2.0 84.1685205975228 2.0225302083199996 2.0 89.564966452536368 3.4616580354821931 2.0 95.209194396087511 1.8628351047485887 2.0 96.856136944548922 3.9302533709136327 2.0 101.86087199573139 1 2.0 1.9532096830344623 4.5880770971518059 2.0 11.208880243884991 2.0929448588699828 2.0 27.665766026439499 4.255932701695083 2.0 62.173903489717482 1.9103868024938417 2.0 65.437860152101294 3.5156504072636148 2.0 92.304608114799549 1.9067779526814888 2.0 98.597605496632426 3.5380876806270036 2.0 98.936799874803157 1.9265603751212477 2.0 3.7425890931077301 2.6854034217966509 2.0 20.284483686452855 1.9219494061079709 2.0 25.559662799134699 3.829620053370153 2.0 60.252145087560933 1.8978049726989543 2.0 64.153815050655538 1 2.0 72.528489611926759 2.1455013860272074 2.0 79.388279268074967 3.3076096959201693 2.0 87.224883830867398 1 2.0 89.532977765408532 1.9027501779770668 2.0 2.9612208613749447 3.8759398929896443 2.0 10.065422116281322 3.5544402883151309 2.0 25.615103070609887 1.9087066152407037 2.0 66.889461226750711 2.3413508300253754 2.0 92.419485921515999 3.4431660538738962 2.0 </DataArray>
<DataArray Name="forces" NumberOfComponents="3" format="ascii" type="Float32">-2.5601192265592818 -4.8466438508602021 0.0 1.0258265684936156 1.5286582547084528 0.0 -0.72134508415291432 -2.1271901882453839 0.0 -1.2171077694619923 0.33445656525723805 0.0 1.5628752445853695 -0.62656658511750529 0.0 0.1783191809106337 -0.30384256935839793 0.0 -2.514529291539322 -1.3956279358299626 0.0 -0.055104728806663172 -2.5980828019179207 0.0 -1.4794244634351288 -0.76813743610431118 0.0 0.97280270021165616 -1.5353048809066476 0.0 0.0 0.0 0.0 -0.14057399117075925 -0.043537188807570695 0.0 1.7628862738214679 0.50818045319144656 0.0 0.79009857380532922 -0.55849617280938535 0.0 0.0 0.0 0.0 -0.59176953079986938 -0.31247946831528528 0.0 -0.81901162522008131 -0.084203769100491987 0.0 0.19338421658349891 0.0 0.0 -1.0208816363888951 -1.0081206673203749 0.0 -1.946574968700703 -1.7005850179682551 0.0 -0.46668045938934299 0.69391811498859357 0.0 0.60127570483100801 -2.4436100393192532 0.0 1.0662140118818282 -3.3677971728451128 0.0 1.6103245377797126 -1.959234729560609 0.0 -0.11933027543203514 -1.0052516228899997 0.0 0.56455121938845521 -0.52283828293135148 0.0 0.12632955634698895 -0.20706416509377273 0.0 -0.29918969947450758 -0.35958533361170292 0.0 -0.688264279789773 -2.0982305377211765 0.0 -1.1308670739519848 -0.1969897450015613 0.0 -0.56631053636072493 -1.6792964703317499 0.0 1.4767368551461535 3.3208044334640565 0.0 0.53671247025823809 1.9778232193036873 0.0 2.28311800442326 0.20931670767910432 0.0 1.5015788797613137 4.0514919253237069 0.0 0.20207785563251807 -1.8946428513930853 0.0 1.6113115915108533 -1.4341364013524289 0.0 1.7265251244649815 0.24582181718456536 0.0 -1.3987442854741399 0.29346901646931695 0.0 3.8572805280134883 0.87459917221372585 0.0 -0.52230716867369842 -0.10574656709480872 0.0 0.31303564289402008 -0.13544078112371147 0.0 -0.4149580098971265 2.6487312176760724 0.0 -0.87165143333867867 -1.8957315197557314 0.0 -0.51570976584644868 1.9099406736807572 0.0 -0.41328796254837563 -3.0990070957989873 0.0 0.68790822472637525 -2.0647205146390268 0.0 0.13835661737779542 1.7873970385577675 0.0 0.61103969440094419 -0.88308927437962814 0.0 -0.99251464961214386 2.2822492982433751 0.0 -0.20422435199097877 -1.9591309676330233 0.0 0.44639637138221083 -2.7862597996020102 0.0 -0.055950672104102761 -1.4953642578435999 0.0 1.8865205596310213 0.36824251285385684 0.0 1.6090501674826216 -3.6350071673357607 0.0 -0.087111915965896625 -1.498221100529928 0.0 -1.085641549770584 1.8583828956126431 0.0 1.0139853649254218 -1.8403922275356401 0.0 0.48307299554970529 -0.077339579380091089 0.0 -1.7244251407266704 4.5357499077514642 0.0 -1.3050748922920621 1.3760758008197052 0.0 0.47647659325052183 0.78207648485475656 0.0 -0.19902426114749228 1.7556643540579193 0.0 -0.65849759694397447 5.756491546427136 0.0 -0.49742997761674701 -2.5838016886558517 0.0 -0.051402020649575053 2.2028391465241937 0.0 2.3397113737126904 -0.55927931605450298 0.0 -0.5419275590646111 -1.3579094512000947 0.0 1.9378278106460813 0.44229476046661187 0.0 -1.4495876268817247 2.5236980112585896 0.0 -1.6374980178313343 -2.3272321009128256 0.0 0.62356705475184171 2.0575972471614992 0.0 0.1559914309428721 -2.6193154232799523 0.0 -0.2667232574739124 0.82394376822910043 0.0 -2.8129009540459924 1.3502993812100454 0.0 -0.84834698347773052 -2.5074101353151343 0.0 2.263618077036043 -1.5770349703090603 0.0 -0.56127556176241822 3.2804839057947262 0.0 1.0516095493063151 -3.6777011794144361 0.0 1.1456437660132122 -2.0046122721364847 0.0 -0.26817417348395595 -2.160683055732767 0.0 1.0728828520058444 -0.64227639216879084 0.0 -3.673531191196687 -0.36939013189827707 0.0 -0.19000678128032883 1.2338994483789723 0.0 -1.3015887073113639 -1.7851887688646848 0.0 2.4493899000023402 2.7670856778997859 0.0 -0.95628301012462313 4.2338878158332527 0.0 0.82665620470363654 -2.2739499260565479 0.0 -0.53213545629962988 -1.06265838948436 0.0 0.39923172618908431 -0.24885918733105808 0.0 -2.1542429306221642 0.31569036744052487 0.0 -3.5615166977818005 -2.834097026467608 0.0 -0.011180274512420652 4.0475240201541594 0.0 0.56083968875660783 4.201147952147239 0.0 1.7107829386082947 4.6407232954840403 0.0 -1.5418988617386173 1.3066674307429638 0.0 0.039196893082549145 -1.7000658538639426 0.0 -2.3444603783302691 1.8748646086144523 0.0 -0.06091281748591848 6.3419733224367825 0.0 0.36872689326939073 -0.95011548924915046 0.0 -0.35679331638719858 4.3354350719543335 0.0 0.18941850017223721 -1.2441175902699042 0.0 -2.9766484814202583 2.6142996162574628 0.0 -0.38119529045965872 -0.43717695503366127 0.0 0.52683414846445309 1.0655396579421279 0.0 1.130724509928049 -2.503174242940033 0.0 0.067361011829910833 6.3616762494099781 0.0 1.1632297234395432 -2.7327575843293674 0.0 0.74401336230623305 2.1838322625722233 0.0 0.94115545175517001 -1.474263914421279 0.0 2.1692583090612501 1.6237807392949608 0.0 -0.93750243706657233 -1.7675988350065548 0.0 0.76458078989984146 4.7943675832499988 0.0 -0.83171833305204412 -3.3035895207425838 0.0 0.040825788792972662 -3.1823348535350884 0.0 1.7097123565762808 0.85326775292950252 0.0 -0.0067998389193877351 1.5992032094801705 0.0 -0.040880179310288534 -2.4272543509052209 0.0 -1.8979542190251641 -2.9889915710803345 0.0 2.2692721455881002 0.62452425217765228 0.0 0.56746986549311318 5.6815026890550433 0.0 -0.29419016015681843 -2.6100623163685306 0.0 -0.2901729905004935 0.85856074909293323 0.0 -0.17347644168926563 5.7080290795201725 0.0 </DataArray>
<DataArray Name="radii" format="ascii" type="Float32">2 2 1 2 2 1 2 1 2 1 1 1 2 1 1 1 2 1 1 2 2 2 2 2 1 2 2 1 1 2 2 2 2 2 2 1 2 1 1 2 1 1 1 2 1 2 1 1 1 1 2 1 2 2 2 1 1 1 2 2 1 1 1 2 2 1 2 1 2 2 2 1 1 1 2 2 2 1 2 2 1 1 1 1 2 2 2 2 2 1 2 2 2 2 2 2 1 2 2 1 2 1 2 2 1 2 2 2 1 2 1 2 2 2 1 1 1 1 2 1 2 2 2 2 </DataArray>
</PointData>
<CellData/>
</Piece>
</UnstructuredGrid>
</VTKFile>
