<?xml version="1.0" ?>
<VTKFile byte_order="LittleEndian" type="UnstructuredGrid" version="0.1">
<UnstructuredGrid>
<Piece NumberOfCells="0" NumberOfPoints="366">
<Points>
<DataArray NumberOfComponents="3" format="ascii" type="Float32">8.1265438261098222 5.9949250292912426 20.478350412446854 20.0 8.0899116666173896 20.0 30.0 8.0899116666173896 20.0 40.851240760840767 1.9147080737765241 19.419548910391466 50.0 8.0899116666173896 20.0 60.0 8.0899116666173896 20.0 68.760490258536223 4.5611099601938747 18.757960864910991 81.26574540327718 5.6932102197521619 18.350884129104497 90.0 8.0899116666173896 20.0 11.95657906356614 16.91479750722819 19.943559708302349 20.0 18.089911666617525 20.0 30.884394703848258 14.083117168538214 22.153243540593536 40.0 18.089911666617525 20.0 50.0 18.089911666617525 20.0 61.75982669713472 13.700592509119259 20.170990557113416 70.0 18.089911666617525 20.0 81.523100067322417 13.838240020795816 18.324467185859103 88.512352693538702 16.737993657399901 19.174997128337708 10.0 28.089911666617525 20.0 20.0 28.089911666617525 20.0 27.645531616896079 25.05935589220212 18.772855544025898 39.440875310844227 26.435728869362531 21.825506458803918 50.576604744112856 27.979112578492234 18.728033014985645 60.0 28.089911666617525 20.0 71.782144651840426 25.255169198406843 19.657348467732614 80.0 28.089911666617525 20.0 89.95709669887178 26.338426392465436 23.248057991795719 10.127124234262119 36.034540474244878 17.907149591570985 20.568896010753321 34.655187932124804 22.49837781400252 28.239089973843164 36.877003400705192 20.851094521532126 40.0 38.089911666617525 20.0 50.14600675922285 34.816763611290675 19.558821386571076 57.397889489054549 36.150811760650399 19.716721155046155 70.859879851006255 36.221959966522782 19.059737967160839 79.006240598828171 35.731887474895615 19.73101573978861 89.413053525554702 34.716255177066913 20.555926306804881 11.247957668021378 42.616980349053541 19.583117087362467 22.343438760620575 47.712766106714746 16.742226810172891 30.839970203169557 43.287527449900345 18.907494179556902 40.836879443014446 44.891027466836242 22.82996155994255 50.350894120449674 45.84583231934954 17.379195655028546 59.381874981456328 42.944517444015794 19.997438453541964 71.30830578536326 44.812535039788905 17.831961353780692 80.124371973692234 47.589487102385839 19.519166415506664 89.373447609497546 42.847417627853602 18.909596166001727 10.545777233290435 56.515504372690152 20.270545654732473 21.842995533482348 55.567047717908729 21.664216869056311 30.007709145863487 53.942265322332304 21.744949016674354 40.0 58.089911666617525 20.0 50.0 58.089911666617525 20.0 59.844714289133954 55.745631067780081 19.590147698326366 70.0 58.089911666617525 20.0 80.0 58.089911666617525 20.0 91.446193495598692 57.361646152118126 21.730418539769293 10.0 68.089911666617525 20.0 20.0 68.089911666617525 20.0 30.249690404904509 64.272004282291547 19.116179293724247 40.815589825555982 67.490651125044735 19.751845772177766 50.0 68.089911666617525 20.0 59.274728342753249 64.939983443771425 19.238090807907447 70.0 68.089911666617525 20.0 78.972562299570555 65.089515039335168 20.225903148030238 90.0 68.089911666617525 20.0 8.673088702861147 74.458723343205449 19.429132704349747 20.860234054328604 76.239815472375668 19.230897242946355 27.851642744448366 77.571924839909215 18.125209743432606 40.0 78.089911666617525 20.0 50.318835627775186 77.438787278140452 20.607873474514381 59.695940481453775 78.240009921838677 18.457807290041675 68.863918729165675 76.280873065957209 19.342285893114937 80.0 78.089911666617525 20.0 91.210976809920325 74.465326668590862 20.699489097599084 11.035460409947984 86.706390618943189 20.524554224411276 20.355680052455543 83.312704994859871 19.581847590997974 30.0 88.089911666617525 20.0 40.0 88.089911666617525 20.0 52.423150551556446 84.530886956276404 19.864452804673615 60.0 88.089911666617525 20.0 70.998302003005762 85.162121013573227 20.414777768196849 78.383658920653843 86.204945854499641 17.538685164773408 90.731625628831935 87.873237174954141 19.913123827717879 10.381897896535209 8.0679990155659667 18.046461167264795 39.414935909282327 7.8289863905205515 21.705022245047338 71.06979654798009 6.7006772693596277 20.648993941255458 78.060866664585348 3.0874579768370327 21.247886563642069 7.186363179770491 16.683772364480387 19.811058479457966 27.535206403889333 16.288413433931751 16.036365258934254 57.825832859531339 19.337747781568076 19.383348661913381 76.499323523368517 15.33889533910868 22.003204854863366 92.670412154841259 15.105696176777037 18.26575996313732 29.264817958962638 28.191020441449727 22.146557943330883 41.765574465690094 26.696041746209623 19.122346130898091 49.693920225391736 24.409394200486627 20.378269035432954 66.517848665342143 25.707605127230408 22.258472740741258 90.135264175403691 23.556885643502028 16.381229909072985 12.910368474879126 35.402476178035037 22.903672889918649 20.282212584479346 33.264786403577077 18.559654428249274 31.578487468472442 33.457941132960116 19.510732116158099 49.573178291482961 37.108604303323801 23.170580080033119 61.305103964597208 34.175178682074254 19.970963667773763 67.51116932673159 33.523785637686593 18.493215949435495 81.645377296392056 38.728639174061783 19.817430248953748 91.669419981023324 37.854586796431263 18.133334845501537 12.947126633877271 47.608618689241119 20.04245054788738 20.030626972948085 45.539101398440202 23.453163409500739 28.928141232813399 49.182012191042141 20.212234596449786 36.126746652743172 46.570372461570166 19.86092194368948 48.946382445887743 45.131339356998296 22.731438900153623 59.009361842624116 49.12987906851361 20.798979587497396 68.611589320264613 48.760206327113302 20.857117772956769 80.861852739370434 43.114401165612584 20.818646860964616 90.342116671043584 49.863245162339666 19.729466731263997 9.960152720306418 53.911068528678918 16.004571645772462 19.442492479577613 56.871412235779985 18.052288109444817 31.444064829628001 57.628484671791448 19.462611035529459 60.467724904302813 59.518891899564984 19.877503015972213 89.92042737908379 52.926146058105687 17.049645107036721 30.826097197318884 68.14033336691557 20.37738782083737 39.378821325819601 65.004460918925417 19.929144437968599 61.941140274048152 64.8241496761446 22.480458560274567 80.928972419571423 63.078909127270549 22.233460591700705 12.390489817838644 76.291812259800338 18.244637031995296 22.541135516683632 73.116302562305336 19.136990926198358 30.282001143454853 71.452809965063139 21.293959006481025 48.171562146077633 74.879502773426069 19.338134766440348 58.989961108273882 74.175632224596612 21.304990087930811 70.786044080004359 76.987035000462868 21.896376327497244 88.913329150670904 77.827764721962723 18.998518234823088 9.8750266289210469 89.565857454962369 19.478903389658392 21.271678011441356 89.256633689182721 20.65487899266574 47.350749435206815 85.288789132654912 20.844708433747364 70.861094235950432 88.777692457787523 18.630091304054016 79.738374920441672 87.837647990065093 22.039717196296774 90.900921835545745 84.715642503609672 19.393890765158734 11.711724860968525 5.2953894082434729 21.099327005040063 41.186885989055931 6.0836605189712714 18.952274697745274 67.633391146240186 6.2298430479974165 23.50646758723073 79.655356900814255 8.5972501695718453 20.17576912931165 12.279321114253023 13.213278876952613 18.933350639153936 28.392039929628233 16.940516348137649 22.533550396285396 62.622680791998604 16.930952041406673 19.707750970497713 83.227960457158829 13.703080557174644 21.006161501592253 89.289588401617834 15.208690877419784 22.348257323302878 31.909287174628442 26.658632424036689 16.298957815361781 39.043595152529974 25.513704242065391 18.895851055520968 48.983968208782244 29.282780216692878 21.301808910262412 69.893338359438189 27.158772091519339 18.700416172215892 87.994851186578927 28.681675658543 19.919688458250803 7.0731660477571552 34.864764079242207 18.044393905109967 20.883070801995501 39.079897537800136 18.708236118596957 28.239493296631668 34.854451482893985 16.962724796074351 50.276206804674516 35.774100211234142 16.606322843771551 59.980515428268063 36.655071878422724 17.856193870636975 71.674661993827414 37.692631135594823 22.70668306191439 80.382989035571967 33.355648567693265 21.994526569330478 87.367946227526332 36.773828899095228 21.841833427237802 5.189630013133689 44.323078071546369 20.086165495707455 19.453752661150894 44.443272067198009 19.969387966990595 30.679361420170771 45.797507226229342 21.57482061591439 43.135881230856718 44.091213068180906 19.169382294302334 49.502294229951254 42.689894215072151 20.129390041125262 63.239954227354062 46.8520871010845 19.72857756077677 69.742551353799939 43.975094364218954 22.592243738555513 76.044550612920588 45.160848684640513 19.875873623001318 90.127790810869115 46.790664219479972 20.905589788856339 9.8684532295052403 59.164686372963516 22.266828076060296 18.628369212712887 58.130694813606347 20.903363017191239 25.804663199051195 54.448562770056654 21.467157857113822 59.652511122185537 55.129500550185654 22.088872645966546 90.402982034875379 54.191250485178678 21.248241897339664 28.595558856991133 66.860133010993607 19.136987252772705 39.356783571676473 67.95425780564608 21.913020527381178 60.794115552566765 67.417424473066504 15.706571005131993 79.106808757501796 69.5051453029009 19.004574064414001 8.6614262706512442 78.043615125479846 21.986542661701915 16.606752934734811 79.735542016345761 20.401340115829321 32.652883627447778 76.627379840576594 19.468341280832025 52.44075820576915 77.102787084113785 18.419267413157034 62.248274305012053 77.333377824406412 20.339430195275586 71.507128756750234 75.959911033497292 19.045793146250247 88.06516182424032 76.076441542558698 20.90477172622855 10.104357535123233 82.448161299397455 18.926558736514831 18.864825621213399 86.980241418963288 18.644522939971903 49.956565629269285 86.166362086134299 20.774368816934029 67.629897312528058 85.528529037062341 20.02306177534577 80.997987222139344 84.90631109521496 20.781200370
[...]
<PointData>
<DataArray Name="Points" NumberOfComponents="3" format="ascii" type="Float32">8.1265438261098222 5.9949250292912426 20.478350412446854 20.0 8.0899116666173896 20.0 30.0 8.0899116666173896 20.0 40.851240760840767 1.9147080737765241 19.419548910391466 50.0 8.0899116666173896 20.0 60.0 8.0899116666173896 20.0 68.760490258536223 4.5611099601938747 18.757960864910991 81.26574540327718 5.6932102197521619 18.350884129104497 90.0 8.0899116666173896 20.0 11.95657906356614 16.91479750722819 19.943559708302349 20.0 18.089911666617525 20.0 30.884394703848258 14.083117168538214 22.153243540593536 40.0 18.089911666617525 20.0 50.0 18.089911666617525 20.0 61.75982669713472 13.700592509119259 20.170990557113416 70.0 18.089911666617525 20.0 81.523100067322417 13.838240020795816 18.324467185859103 88.512352693538702 16.737993657399901 19.174997128337708 10.0 28.089911666617525 20.0 20.0 28.089911666617525 20.0 27.645531616896079 25.05935589220212 18.772855544025898 39.440875310844227 26.435728869362531 21.825506458803918 50.576604744112856 27.979112578492234 18.728033014985645 60.0 28.089911666617525 20.0 71.782144651840426 25.255169198406843 19.657348467732614 80.0 28.089911666617525 20.0 89.95709669887178 26.338426392465436 23.248057991795719 10.127124234262119 36.034540474244878 17.907149591570985 20.568896010753321 34.655187932124804 22.49837781400252 28.239089973843164 36.877003400705192 20.851094521532126 40.0 38.089911666617525 20.0 50.14600675922285 34.816763611290675 19.558821386571076 57.397889489054549 36.150811760650399 19.716721155046155 70.859879851006255 36.221959966522782 19.059737967160839 79.006240598828171 35.731887474895615 19.73101573978861 89.413053525554702 34.716255177066913 20.555926306804881 11.247957668021378 42.616980349053541 19.583117087362467 22.343438760620575 47.712766106714746 16.742226810172891 30.839970203169557 43.287527449900345 18.907494179556902 40.836879443014446 44.891027466836242 22.82996155994255 50.350894120449674 45.84583231934954 17.379195655028546 59.381874981456328 42.944517444015794 19.997438453541964 71.30830578536326 44.812535039788905 17.831961353780692 80.124371973692234 47.589487102385839 19.519166415506664 89.373447609497546 42.847417627853602 18.909596166001727 10.545777233290435 56.515504372690152 20.270545654732473 21.842995533482348 55.567047717908729 21.664216869056311 30.007709145863487 53.942265322332304 21.744949016674354 40.0 58.089911666617525 20.0 50.0 58.089911666617525 20.0 59.844714289133954 55.745631067780081 19.590147698326366 70.0 58.089911666617525 20.0 80.0 58.089911666617525 20.0 91.446193495598692 57.361646152118126 21.730418539769293 10.0 68.089911666617525 20.0 20.0 68.089911666617525 20.0 30.249690404904509 64.272004282291547 19.116179293724247 40.815589825555982 67.490651125044735 19.751845772177766 50.0 68.089911666617525 20.0 59.274728342753249 64.939983443771425 19.238090807907447 70.0 68.089911666617525 20.0 78.972562299570555 65.089515039335168 20.225903148030238 90.0 68.089911666617525 20.0 8.673088702861147 74.458723343205449 19.429132704349747 20.860234054328604 76.239815472375668 19.230897242946355 27.851642744448366 77.571924839909215 18.125209743432606 40.0 78.089911666617525 20.0 50.318835627775186 77.438787278140452 20.607873474514381 59.695940481453775 78.240009921838677 18.457807290041675 68.863918729165675 76.280873065957209 19.342285893114937 80.0 78.089911666617525 20.0 91.210976809920325 74.465326668590862 20.699489097599084 11.035460409947984 86.706390618943189 20.524554224411276 20.355680052455543 83.312704994859871 19.581847590997974 30.0 88.089911666617525 20.0 40.0 88.089911666617525 20.0 52.423150551556446 84.530886956276404 19.864452804673615 60.0 88.089911666617525 20.0 70.998302003005762 85.162121013573227 20.414777768196849 78.383658920653843 86.204945854499641 17.538685164773408 90.731625628831935 87.873237174954141 19.913123827717879 10.381897896535209 8.0679990155659667 18.046461167264795 39.414935909282327 7.8289863905205515 21.705022245047338 71.06979654798009 6.7006772693596277 20.648993941255458 78.060866664585348 3.0874579768370327 21.247886563642069 7.186363179770491 16.683772364480387 19.811058479457966 27.535206403889333 16.288413433931751 16.036365258934254 57.825832859531339 19.337747781568076 19.383348661913381 76.499323523368517 15.33889533910868 22.003204854863366 92.670412154841259 15.105696176777037 18.26575996313732 29.264817958962638 28.191020441449727 22.146557943330883 41.765574465690094 26.696041746209623 19.122346130898091 49.693920225391736 24.409394200486627 20.378269035432954 66.517848665342143 25.707605127230408 22.258472740741258 90.135264175403691 23.556885643502028 16.381229909072985 12.910368474879126 35.402476178035037 22.903672889918649 20.282212584479346 33.264786403577077 18.559654428249274 31.578487468472442 33.457941132960116 19.510732116158099 49.573178291482961 37.108604303323801 23.170580080033119 61.305103964597208 34.175178682074254 19.970963667773763 67.51116932673159 33.523785637686593 18.493215949435495 81.645377296392056 38.728639174061783 19.817430248953748 91.669419981023324 37.854586796431263 18.133334845501537 12.947126633877271 47.608618689241119 20.04245054788738 20.030626972948085 45.539101398440202 23.453163409500739 28.928141232813399 49.182012191042141 20.212234596449786 36.126746652743172 46.570372461570166 19.86092194368948 48.946382445887743 45.131339356998296 22.731438900153623 59.009361842624116 49.12987906851361 20.798979587497396 68.611589320264613 48.760206327113302 20.857117772956769 80.861852739370434 43.114401165612584 20.818646860964616 90.342116671043584 49.863245162339666 19.729466731263997 9.960152720306418 53.911068528678918 16.004571645772462 19.442492479577613 56.871412235779985 18.052288109444817 31.444064829628001 57.628484671791448 19.462611035529459 60.467724904302813 59.518891899564984 19.877503015972213 89.92042737908379 52.926146058105687 17.049645107036721 30.826097197318884 68.14033336691557 20.37738782083737 39.378821325819601 65.004460918925417 19.929144437968599 61.941140274048152 64.8241496761446 22.480458560274567 80.928972419571423 63.078909127270549 22.233460591700705 12.390489817838644 76.291812259800338 18.244637031995296 22.541135516683632 73.116302562305336 19.136990926198358 30.282001143454853 71.452809965063139 21.293959006481025 48.171562146077633 74.879502773426069 19.338134766440348 58.989961108273882 74.175632224596612 21.304990087930811 70.786044080004359 76.987035000462868 21.896376327497244 88.913329150670904 77.827764721962723 18.998518234823088 9.8750266289210469 89.565857454962369 19.478903389658392 21.271678011441356 89.256633689182721 20.65487899266574 47.350749435206815 85.288789132654912 20.844708433747364 70.861094235950432 88.777692457787523 18.630091304054016 79.738374920441672 87.837647990065093 22.039717196296774 90.900921835545745 84.715642503609672 19.393890765158734 11.711724860968525 5.2953894082434729 21.099327005040063 41.186885989055931 6.0836605189712714 18.952274697745274 67.633391146240186 6.2298430479974165 23.50646758723073 79.655356900814255 8.5972501695718453 20.17576912931165 12.279321114253023 13.213278876952613 18.933350639153936 28.392039929628233 16.940516348137649 22.533550396285396 62.622680791998604 16.930952041406673 19.707750970497713 83.227960457158829 13.703080557174644 21.006161501592253 89.289588401617834 15.208690877419784 22.348257323302878 31.909287174628442 26.658632424036689 16.298957815361781 39.043595152529974 25.513704242065391 18.895851055520968 48.983968208782244 29.282780216692878 21.301808910262412 69.893338359438189 27.158772091519339 18.700416172215892 87.994851186578927 28.681675658543 19.919688458250803 7.0731660477571552 34.864764079242207 18.044393905109967 20.883070801995501 39.079897537800136 18.708236118596957 28.239493296631668 34.854451482893985 16.962724796074351 50.276206804674516 35.774100211234142 16.606322843771551 59.980515428268063 36.655071878422724 17.856193870636975 71.674661993827414 37.692631135594823 22.70668306191439 80.382989035571967 33.355648567693265 21.994526569330478 87.367946227526332 36.773828899095228 21.841833427237802 5.189630013133689 44.323078071546369 20.086165495707455 19.453752661150894 44.443272067198009 19.969387966990595 30.679361420170771 45.797507226229342 21.57482061591439 43.135881230856718 44.091213068180906 19.169382294302334 49.502294229951254 42.689894215072151 20.129390041125262 63.239954227354062 46.8520871010845 19.72857756077677 69.742551353799939 43.975094364218954 22.592243738555513 76.044550612920588 45.160848684640513 19.875873623001318 90.127790810869115 46.790664219479972 20.905589788856339 9.8684532295052403 59.164686372963516 22.266828076060296 18.628369212712887 58.130694813606347 20.903363017191239 25.804663199051195 54.448562770056654 21.467157857113822 59.652511122185537 55.129500550185654 22.088872645966546 90.402982034875379 54.191250485178678 21.248241897339664 28.595558856991133 66.860133010993607 19.136987252772705 39.356783571676473 67.95425780564608 21.913020527381178 60.794115552566765 67.417424473066504 15.706571005131993 79.106808757501796 69.5051453029009 19.004574064414001 8.6614262706512442 78.043615125479846 21.986542661701915 16.606752934734811 79.735542016345761 20.401340115829321 32.652883627447778 76.627379840576594 19.468341280832025 52.44075820576915 77.102787084113785 18.419267413157034 62.248274305012053 77.333377824406412 20.339430195275586 71.507128756750234 75.959911033497292 19.045793146250247 88.06516182424032 76.076441542558698 20.90477172622855 10.104357535123233 82.448161299397455 18.926558736514831 18.864825621213399 86.980241418963288 18.644522939971903 49.956565629269285 86.166362086134299 20.774368816934029 67.629897312528058 85.528529037062341 20.02306177534577 80.997987222139344 84.90631109521496 20.781200370154977 87.671199070176129 85.75658524480771 20.839713193869972 35.853316668565171 7.6349445045241957 19.110247486434268 74.902651609135816 6.2730419706411356 17.700847122556191 80.848948031707693 4.5354095260067169 22.207660680914454 8.5543722865976601 17.517165230237328 22.383493778170433 31.301445924663387 17.490131122519358 19.07667852659776 57.676845758236126 15.495503991125689 20.954570403536419 78.259257115875585 18.260052752932967 18.155384322352628 92.405861517527569 17.096744298697033 20.406546137552159 31.25480214484309 23.195814704320814 22.964770177193685 68.629602086163501 24.230197431424418 18.763919625165645 91.737448489740657 23.372329074208945 19.734416302867221 9.6685420109917555 35.742935600087122 22.078251776097325 16.695383199097339 34.587951811842871 17.157788443753223 34.848197966023349 36.985108637477069 20.652675449217124 52.767883897016866 37.762194423259487 19.736526292544855 63.525562801790393 35.313330535458938 23.777433463757557 66.37633150796087 36.321990434922022 20.09559796770186 9.7422444617638817 47.634020757125292 20.26378887066009 17.843628584192935 42.825984226266463 22.813629849005487 26.578415499570514 47.139092659596592 19.728893955935145 39.241822687285705 45.421517892661761 17.216235576921491 51.147565034438124 49.146042572423866 23.436278988436651 84.58963741574793 43.498186548530185 18.238632208966827 8.5594139500668991 52.79106709877059 19.800689378036022 32.517589864981794 55.379997802686326 15.735159116616325 89.796989571087281 56.948361087983258 18.394308923503957 29.304868251749259 67.489515314796904 23.891296809618748 59.05300352861353 66.98957502298866 22.529149881680993 83.675620465725046 62.328753187304535 17.315025315248608 12.750646325299217 74.428888705821109 22.14571020321614 19.316128536438935 72.132276193152265 21.079400603376516 32.194027377904469 75.150004188895196 22.674815442460112 47.955087190806402 70.503761839928188 22.066435766947606 59.347654339513049 71.667220586034631 21.352797975881419 92.082672380486954 77.559997104683191 18.314916134929522 49.23118186297188 88.628943146223378 19.249893923522016 10.011461330538515 6.3336543191344914 21.951515401048258 40.605264411215018 3.376166503107267 21.361905391171256 66.429236223871143 4.1747274488783219 19.165975677256693 80.077110150042955 7.1956949571051219 16.833126239993248 9.6002718407422147 15.550957091106225 20.671670771196521 32.172459838836573 12.441670600181094 20.883384841048915 61.100590995353208 10.969672439040774 20.378108674711125 79.433772062598663 15.302063719916037 17.129752692405059 87.181412285517297 16.773542344495109 21.657485391238403 29.602004483555554 23.746038397541703 20.316495765885318 38.009896015500345 28.63446753525643 20.799221610577906 50.926183356235249 25.882649059589056 19.800460874987067 74.311897936301136 26.086631303818411 20.576278901075021 90.013986700253227 27.602655728366152 20.740810257606388 10.738669407744956 37.302756855410998 20.342795802749155 19.109134052050372 36.531924791298678 21.887621987244916 28.189134448502905 35.016185839131104 22.428095267557214 47.591176991699356 33.632104987751184 19.489230733840646 58.789501320764799 38.030348024260668 21.287126834453883 72.953697338422259 36.446344889843701 21.043887877931667 76.937567160411618 37.283140748211707 18.613152804758567 91.380412189561611 36.696651215608483 20.253771988213558 10.351430757282241 45.082246769367266 20.586504211562175 21.305219592195805 45.328242657303029 17.824614417187629 33.564221868387641 42.611299446027729 19.145365164826288 40.006882027447375 46.200071125136994 20.963788447854022 52.336259215127079 46.141742840243239 18.72218360381062 58.791454770856049 45.225308276487567 19.380467087517278 70.994442333107671 47.434403955906333 18.8131377774342 80.306289297703515 49.519196082082843 21.036114769944508 91.885072599701616 43.460019068912239 20.02846766769143 11.969406961219937 54.998411834308442 21.54106249144743 19.488121665689604 55.439360396668022 20.123541994503181 31.895858757006877 53.707552029125218 20.279086169882287 59.937200765750937 53.92361565452498 17.443727390045186 89.843565794772019 59.654491563143267 22.061867522241791 30.357458463794138 61.646797906018755 18.100260211435764 41.241667849536064 67.418477796244346 17.384999819052513 56.916189296673629 66.080634373359104 20.273283098859576 76.819915121637493 66.83335750994155 20.736332006289931 7.1568753758094301 75.604163779172225 21.508670491652747 20.373784987798423 76.6268388256142 21.566940815135634 27.900952321973982 75.904848967552951 19.909249672992498 49.758918030536535 79.76230653221144 19.953439594460569 60.128603147647311 75.944243046655657 17.774634736619856 67.3340546531104 77.390318098300924 17.807147933033686 89.834042076989121 72.578771123210572 22.274409085960595 8.7359160572316821 85.238502545025696 21.226561650753361 18.560291194087149 82.794268719497353 21.079264487386464 51.917973704774546 84.222630355336506 17.110330752957214 69.968598231603849 86.093150388648695 22.409782639995967 80.966304101559885 85.094899183949209 17.720768423314041 90.825711576917129 90.088468831090523 21.009360211210872 40.388310770047717 10.042149604625431 22.226418573422315 72.800114550682295 7.1761480946553844 18.446095487264735 76.77774723809101 3.0239688282338979 23.754874341765568 5.0990306816683804 14.804621800896062 19.809078764078581 29.212984189602079 14.859646566774909 17.069816845958787 56.177482979139775 17.145462881054126 19.975963218211334 77.358964031249315 17.366455822049058 23.111593110169188 91.268844105524352 14.185412484369033 16.531550772008654 30.877741594087212 25.988586264445022 22.953672144568216 66.620063398086629 27.607954421389397 20.69960278148217 91.914870246538115 24.789124940705431 15.260098800287983 12.924885331396501 36.350412900497496 20.674685081678042 22.198606630908124 32.74292059769256 17.221735840902042 30.993713463914361 33.052985024098305 22.236436422899143 48.404048951807233 35.431236276998945 24.366538767434136 62.535994064197148 32.099594912624831 18.51759666904184 69.704942801547006 34.478084070555624 17.924683775741958 12.238415013388813 50.064705781210094 18.858905833925935 18.52774294073151 47.487244357456809 23.542294417038455 29.69590030338486 47.872683136730096 17.839131671714394 38.127384190206328 45.507521063829792 20.636425062024372 47.637651586615824 46.270512182955535 20.512222176873074 78.746686958616777 41.912271008738578 19.39865712150841 8.971988343812253 55.169469252723268 18.323056676358302 28.991318554752826 57.51345053859697 18.081952890446381 87.559700992702616 53.363799416112762 16.758311503883661 32.934201008452341 66.274251890623631 20.472531394571035 60.497855759995858 62.908518040164459 22.923035397602199 82.965454151348268 62.724278767425275 20.319722490937369 13.127780394347804 76.319607513972642 15.540518053223137 22.224066956920776 70.75894021348843 18.624281581974632 29.685762425956053 72.283733211472665 19.091798030267881 49.455737506142917 72.37315718505063 19.270759025033108 58.043027406944852 76.651147728137445 22.114622162773291 89.255501449239105 79.13377090321633 16.526134763975978 45.395475768341441 85.97360709635231 22.104188785269287 42.315713191126655 7.1354153496059176 17.070567832913508 69.918303911105369 4.9161564312871233 22.48844990607526 13.954759077029909 11.829175596526271 17.841427871574147 29.396792332349627 17.700612783709765 20.481480428894407 59.938891481742445 17.491001011103005 19.040717029061614 83.909325249668825 15.987728860295421 22.50667414894756 30.687758333647736 24.239755115375477 17.068577143727634 5.507635814744642 32.850505146399712 19.239086374026584 21.055063615580039 37.80359922836552 21.182045863885708 28.573331034159601 37.650729263313025 16.893464460852535 81.143168351644221 32.087582801353527 19.596704500462312 7.5985044410238309 45.716047610057949 20.585989390628207 17.595394223303483 45.189728625813501 17.988297212663749 29.281878425874332 45.00093027079334 23.887377747969428 42.478327041146621 46.148935579880366 17.361395953994968 50.213675304542306 40.541500528011589 18.451964756228758 60.691044788067146 46.54258806461204 18.5935508504936 69.847786321060084 43.618295149258927 20.222490607505765 77.983858280948695 45.960508575933353 21.756044860224932 87.747264832532267 46.898253572831642 22.407899561109346 27.498557638981158 56.199439663427476 22.881571440523057 87.684867752030968 53.453958032405978 21.308811186420016 61.759835367286279 65.876759658920236 17.858117245445651 77.862295730454349 71.176561814158205 20.29354154124778 18.926990662324371 78.142814686239063 20.278333637547732 31.359374423048823 78.998831706548202 18.669301832611247 8.6969030623793682 81.352167173231152 20.561587601709387 18.725448251864069 88.371728216033645 20.645843195278442 82.981148384780553 84.091952678671177 21.876871776357163 88.239247160527668 83.778505385901198 19.532369937491076 36.512677167458939 5.7305492887179987 21.078479344933442 83.071679582236357 6.260650460042581 22.071932172083134 32.45794347913769 15.774821475071354 17.66582558166137 78.848827907911868 17.197323344652109 20.246206906004947 33.906787598805494 23.377183582838384 23.866898062064951 68.61886150533222 21.958179285999829 19.637871485643984 89.937730164949741 22.454781195592506 21.697712993679982 16.886414984256145 35.028533033293677 19.528269931880278 34.185793106192939 34.776323491062804 21.435281964417147 51.57365904692346 37.228660222967143 21.723402826684161 61.534318677979734 34.986296762001494 22.479078805844701 17.554410439154651 40.442926949906045 22.418254161091479 38.805706338445106 46.387145064625095 14.606105168428821 48.688211177177948 49.891783370056601 22.282648492210189 83.82429590521852 41.594398162246762 20.168724488318006 6.6900334379402127 52.252181848278184 21.837950589069301 34.605657841406902 57.262352556367269 15.914398513571333 27.487298233353382 65.370597784949666 23.514412498148264 81.112634544138047 61.308657454475949 17.885921028938789 11.64292685487229 73.96027037785781 19.607224284821079 17.073901226296172 73.724283048111957 21.690420175656651 29.524079959042243 75.416400299114983 23.532619585180811 49.480666699687738 72.033621183955276 23.21065433