<?xml version="1.0" ?>
<VTKFile byte_order="LittleEndian" type="UnstructuredGrid" version="0.1">
<UnstructuredGrid>
<Piece NumberOfCells="0" NumberOfPoints="54">
<Points>
<DataArray NumberOfComponents="3" format="ascii" type="Float32">2.0312988014300077 1.2377825761733845 2.0 5.3102283634552556 2.2198782492367912 2.0 7.1190853662649189 1 2.0 9.0501665181770239 1.9496081210423044 2.0 12.952608579407739 1.4776412426352479 2.0 16.0 1 2.0 19.454644566927946 1.4596538466850253 2.0 22.0 1 2.0 24.787757005319715 1.440609787681888 2.0 28.0 1 2.0 31.0 1 2.0 34.0 1 2.0 37.400078515144045 1.7650166981984308 2.0 40.0 1 2.0 43.0 1 2.0 46.0 1 2.0 48.649354778977539 2.4754481740901335 2.0 52.0 1 2.0 55.0 1 2.0 57.305033610642774 1.014559490801143 2.0 60.514661611518434 2.2795936212647363 2.0 64.35690140074594 1.6168995745056849 2.0 67.516258688628611 2.444166237769748 2.0 70.025001924163291 2.1310387986062742 2.0 73.236489640109681 1 2.0 75.473253594364266 1.4816544552049686 2.0 78.636542529016864 1.8797210972517153 2.0 82.082306636547031 1 2.0 85.0 1 2.0 86.899561452693192 1.4059227293041476 2.0 90.487116233871674 2.2182286837713474 2.0 93.536517055653206 2.5225561227364608 2.0 96.33025518529621 2.3136219710409041 2.0 100.88051205391326 1.8777516316518144 2.0 1.5564832656684715 2.9869464058289013 2.0 3.9836304999279362 1 2.0 10.834745644819508 1.6228971817237581 2.0 14.190208901189841 2.7980268145083182 2.0 18.040834753065901 2.5928825675993248 2.0 25.66377419777541 3.0233166747517481 2.0 35.611185833531934 2.0290685453352473 2.0 49.716627277513084 1 2.0 57.8745369538969 2.7404897534730432 2.0 61.788767988609067 1 2.0 62.807831853946709 2.5497659955585474 2.0 66.413702597094144 1 2.0 71.425057251060338 1 2.0 76.570289016517123 2.9198262629050569 2.0 80.45128678102823 1.753674811318888 2.0 88.435391826892726 2.3751141513552185 2.0 91.815232523233789 1 2.0 94.542242633992956 1 2.0 97.565125281341082 1 2.0 99.076016029054031 1.957944775325581 2.0 </DataArray>
</Points>
<Cells>
<DataArray Name="connectivity" format="ascii" type="Int32">0</DataArray>
<DataArray Name="offsets" format="ascii" type="Int32">0</DataArray>
<DataArray Name="types" format="ascii" type="UInt8">1</DataArray>
</Cells>
<PointData>
<DataArray Name="Points" NumberOfComponents="3" format="ascii" type="Float32">2.0312988014300077 1.2377825761733845 2.0 5.3102283634552556 2.2198782492367912 2.0 7.1190853662649189 1 2.0 9.0501665181770239 1.9496081210423044 2.0 12.952608579407739 1.4776412426352479 2.0 16.0 1 2.0 19.454644566927946 1.4596538466850253 2.0 22.0 1 2.0 24.787757005319715 1.440609787681888 2.0 28.0 1 2.0 31.0 1 2.0 34.0 1 2.0 37.400078515144045 1.7650166981984308 2.0 40.0 1 2.0 43.0 1 2.0 46.0 1 2.0 48.649354778977539 2.4754481740901335 2.0 52.0 1 2.0 55.0 1 2.0 57.305033610642774 1.014559490801143 2.0 60.514661611518434 2.2795936212647363 2.0 64.35690140074594 1.6168995745056849 2.0 67.516258688628611 2.444166237769748 2.0 70.025001924163291 2.1310387986062742 2.0 73.236489640109681 1 2.0 75.473253594364266 1.4816544552049686 2.0 78.636542529016864 1.8797210972517153 2.0 82.082306636547031 1 2.0 85.0 1 2.0 86.899561452693192 1.4059227293041476 2.0 90.487116233871674 2.2182286837713474 2.0 93.536517055653206 2.5225561227364608 2.0 96.33025518529621 2.3136219710409041 2.0 100.88051205391326 1.8777516316518144 2.0 1.5564832656684715 2.9869464058289013 2.0 3.9836304999279362 1 2.0 10.834745644819508 1.6228971817237581 2.0 14.190208901189841 2.7980268145083182 2.0 18.040834753065901 2.5928825675993248 2.0 25.66377419777541 3.0233166747517481 2.0 35.611185833531934 2.0290685453352473 2.0 49.716627277513084 1 2.0 57.8745369538969 2.7404897534730432 2.0 61.788767988609067 1 2.0 62.807831853946709 2.5497659955585474 2.0 66.413702597094144 1 2.0 71.425057251060338 1 2.0 76.570289016517123 2.9198262629050569 2.0 80.45128678102823 1.753674811318888 2.0 88.435391826892726 2.3751141513552185 2.0 91.815232523233789 1 2.0 94.542242633992956 1 2.0 97.565125281341082 1 2.0 99.076016029054031 1.957944775325581 2.0 </DataArray>
<DataArray Name="forces" NumberOfComponents="3" format="ascii" type="Float32">0.0 0.0 0.0 0.0063560845533828861 0.0059464596109773402 0.0 0.0 0.0 0.0 0.0 0.0 0.0 0.0 0.0 0.0 0.0 0.0 0.0 0.0 0.0 0.0 0.0 0.0 0.0 0.0 0.0 0.0 0.0 0.0 0.0 0.0 0.0 0.0 0.0 0.0 0.0 0.0 0.0 0.0 0.0 0.0 0.0 0.0 0.0 0.0 0.0 0.0 0.0 -0.019042539872486726 0.027257725039438657 0.0 0.0 0.0 0.0 0.0 0.0 0.0 0.0 0.0 0.0 -0.0087688629377646581 0.0089831437238788274 0.0 0.0 0.0 0.0 0.016432104411645825 0.022192253277619679 0.0 -0.014094670621322454 0.01144300020487954 0.0 0.016712749187430518 -3.6091666998121825e-05 0.0 0.0 0.0 0.0 -0.026242043398432464 0.0019947866251194455 0.0 0.020781943842602887 -0.0097526742973528761 0.0 0.0 0.0 0.0 0.0 0.0 0.0 -0.0063489087261840169 0.0059249198674508488 0.0 -0.021478164324008158 0.033836149966127056 0.0 -0.059825528131679462 0.062247717948215812 0.0 0.068672412536403632 -6.6064283779654584e-05 0.0 0.0 0.0 0.0 -0.0063560845533828861 -0.0059464596109773402 0.0 0.0 0.0 0.0 0.0 0.0 0.0 0.0 0.0 0.0 0.0 0.0 0.0 0.0 0.0 0.0 0.019042539872486726 -0.027257725039438657 0.0 0.0 0.0 0.0 0.0087688629377646581 -0.0089831437238788274 0.0 0.0 0.0 0.0 -0.016432104411645825 -0.022192253277619679 0.0 -0.0026180785661080643 -0.011406908537881419 0.0 0.0 0.0 0.0 0.0054600995558295763 0.0077578876722334301 0.0 0.0 0.0 0.0 0.0063489087261840169 -0.0059249198674508488 0.0 0.021478164324008158 -0.033836149966127056 0.0 -0.027272193769856234 -0.11604236720995148 0.0 0.018425309365132064 0.053860713545515325 0.0 </DataArray>
<DataArray Name="radii" format="ascii" type="Float32">1 1 1 1 1 1 1 1 1 1 1 1 1 1 1 1 1 1 1 1 1 1 1 1 1 1 1 1 1 1 1 1 1 1 1 1 1 1 1 1 1 1 1 1 1 1 1 1 1 1 1 1 1 1 </DataArray>
</PointData>
<CellData/>
</Piece>
</UnstructuredGrid>
</VTKFile>
