<?xml version="1.0" ?>
<VTKFile byte_order="LittleEndian" type="UnstructuredGrid" version="0.1">
<UnstructuredGrid>
<Piece NumberOfCells="0" NumberOfPoints="54">
<Points>
<DataArray NumberOfComponents="3" format="ascii" type="Float32">1.969314926268545 1.8612073010354779 2.0 5.4166263784489104 2.0893626374167233 2.0 7.0832394802866059 1 2.0 8.6990829895961372 1.9698049865021976 2.0 13.156068406607261 1.925545912609641 2.0 16.0 1 2.0 19.749121286358395 1.9455871206340716 2.0 22.008266667205358 1 2.0 24.220056523329589 1.923682409938402 2.0 28.000110618634078 1 2.0 31.0 1 2.0 33.981977036697799 1 2.0 37.648231611914042 1.9525206841629759 2.0 40.019502703559873 1 2.0 43.0 1 2.0 46.0 1 2.0 48.414919414847589 2.2263511464776045 2.0 52.0 1 2.0 54.85067687273289 1 2.0 56.843116714064656 1.9277524654899525 2.0 59.978151047642498 1.9417304517269525 2.0 64.38465101616427 1.9298532833056337 2.0 67.916218592626592 2.3624170808437914 2.0 70.198348538320417 1.9638586999628163 2.0 73.148499984130353 1 2.0 75.163456614253107 1.9370561474249155 2.0 78.62564978051951 1.94354850761765 2.0 82.134566503106271 1 2.0 84.77403409802109 1 2.0 86.653183370835848 1.9536306634477882 2.0 90.052516119744894 1.9414680017072103 2.0 93.650105691694122 2.6671741887279614 2.0 95.973687485359349 2.1798327151751282 2.0 101.57990227477632 1.9513422487887602 2.0 2.0 3.4842915812545354 2.0 3.8987499775287837 1 2.0 10.898336325345387 1.9497345175425633 2.0 14.582278953175829 2.9245169081148319 2.0 17.704141582917618 2.5866672272218127 2.0 26.258085068469953 2.9878610839069655 2.0 35.361552996504265 1.9130983209103134 2.0 49.951062641643034 1 2.0 58.151339969441224 3.0780168742529139 2.0 61.743783999627787 1.9160405109824208 2.0 62.937249089446915 2.9197288599757409 2.0 66.251431548236354 1.929550732265485 2.0 71.672571756863022 1 2.0 76.728155219894731 3.1401078840904368 2.0 80.697939845091881 1.6027116486831379 2.0 88.463778285018535 2.406567637544915 2.0 91.927588942465619 1.9214633994104835 2.0 94.510354915471297 1 2.0 97.603722179286322 1.9407794538064638 2.0 99.399615703090404 1.9491581584893782 2.0 </DataArray>
</Points>
<Cells>
<DataArray Name="connectivity" format="ascii" type="Int32">0</DataArray>
<DataArray Name="offsets" format="ascii" type="Int32">0</DataArray>
<DataArray Name="types" format="ascii" type="UInt8">1</DataArray>
</Cells>
<PointData>
<DataArray Name="Points" NumberOfComponents="3" format="ascii" type="Float32">1.969314926268545 1.8612073010354779 2.0 5.4166263784489104 2.0893626374167233 2.0 7.0832394802866059 1 2.0 8.6990829895961372 1.9698049865021976 2.0 13.156068406607261 1.925545912609641 2.0 16.0 1 2.0 19.749121286358395 1.9455871206340716 2.0 22.008266667205358 1 2.0 24.220056523329589 1.923682409938402 2.0 28.000110618634078 1 2.0 31.0 1 2.0 33.981977036697799 1 2.0 37.648231611914042 1.9525206841629759 2.0 40.019502703559873 1 2.0 43.0 1 2.0 46.0 1 2.0 48.414919414847589 2.2263511464776045 2.0 52.0 1 2.0 54.85067687273289 1 2.0 56.843116714064656 1.9277524654899525 2.0 59.978151047642498 1.9417304517269525 2.0 64.38465101616427 1.9298532833056337 2.0 67.916218592626592 2.3624170808437914 2.0 70.198348538320417 1.9638586999628163 2.0 73.148499984130353 1 2.0 75.163456614253107 1.9370561474249155 2.0 78.62564978051951 1.94354850761765 2.0 82.134566503106271 1 2.0 84.77403409802109 1 2.0 86.653183370835848 1.9536306634477882 2.0 90.052516119744894 1.9414680017072103 2.0 93.650105691694122 2.6671741887279614 2.0 95.973687485359349 2.1798327151751282 2.0 101.57990227477632 1.9513422487887602 2.0 2.0 3.4842915812545354 2.0 3.8987499775287837 1 2.0 10.898336325345387 1.9497345175425633 2.0 14.582278953175829 2.9245169081148319 2.0 17.704141582917618 2.5866672272218127 2.0 26.258085068469953 2.9878610839069655 2.0 35.361552996504265 1.9130983209103134 2.0 49.951062641643034 1 2.0 58.151339969441224 3.0780168742529139 2.0 61.743783999627787 1.9160405109824208 2.0 62.937249089446915 2.9197288599757409 2.0 66.251431548236354 1.929550732265485 2.0 71.672571756863022 1 2.0 76.728155219894731 3.1401078840904368 2.0 80.697939845091881 1.6027116486831379 2.0 88.463778285018535 2.406567637544915 2.0 91.927588942465619 1.9214633994104835 2.0 94.510354915471297 1 2.0 97.603722179286322 1.9407794538064638 2.0 99.399615703090404 1.9491581584893782 2.0 </DataArray>
<DataArray Name="forces" NumberOfComponents="3" format="ascii" type="Float32">-0.66446776161256538 -1.9170063565450901 0.0 -0.02666364024113288 0.89157479491952762 0.0 -0.10391657159876222 -0.79451684541107659 0.0 -0.45767150277500313 0.43461455236628038 0.0 0.50424690025859609 -0.52379043690658456 0.0 0.0 0.0 0.0 0.39696757340006061 -0.089809513394761842 0.0 -0.049809831147021616 -0.18338485826606921 0.0 -1.0495228610571878 -0.56414352386846811 0.0 0.0023953833978742744 -0.002671698197543535 0.0 0.0 0.0 0.0 -0.10958403010041456 -0.072772648573139531 0.0 0.33487558992667676 0.060332848274942383 0.0 0.10771719112310557 -0.045225855912788937 0.0 0.0 0.0 0.0 0.0 0.0 0.0 -0.57885165265945393 0.48957587125958657 0.0 0.0 0.0 0.0 -0.44071340201714976 -0.20257449905104366 0.0 -0.87587294103704894 -0.47600879342441849 0.0 -0.93237447053912503 -0.173323477819989 0.0 0.022854555899243012 -0.4305167824304692 0.0 0.66777272823345246 0.74502468708462 0.0 0.50287048982001747 0.30585111052780511 0.0 -0.12669149519279665 -0.1954913701415544 0.0 -0.40752784635036965 -0.27454287014905721 0.0 -0.025568774464023281 -0.13395451495711205 0.0 0.21076358022008745 -0.08989906385308237 0.0 -0.52836101199806562 -0.2679947109185537 0.0 -0.53810390131324803 0.084368816292165 0.0 -0.53588251712146806 -0.17900668323378416 0.0 0.0031351889766060292 1.6334072050524617 0.0 -0.33060627520769453 0.6150826949112147 0.0 1.4596452144530709 0.034814502705263442 0.0 0.0 2.1654429362880281 0.0 -0.18940066207213696 -0.74325887391408263 0.0 0.062059724244805992 0.0 0.0 0.85753296289452718 0.55438542079966779 0.0 -0.58977927896571514 0.17438430329195836 0.0 1.2578949386459894 0.66015956150042521 0.0 -0.33300875094936777 0.057665656210986085 0.0 0.57885165265945393 -0.48957587125958657 0.0 0.34452583449705237 0.94881069652946415 0.0 -0.077612951385043538 -0.72962448500903043 0.0 0.12700800604289442 1.2480046237868854 0.0 -0.15462011253384977 -0.43706835255803528 0.0 0.46237193582320646 -0.51435822518234564 0.0 0.22627199569332196 0.71744740886583691 0.0 0.39019758813915306 -0.022410204087479665 0.0 -0.17295681632876614 0.43931649742269019 0.0 0.10751764483400095 -0.61219493060076802 0.0 -0.22700394683959069 -1.2517502963787859 0.0 0.14122229683983845 -0.19391679511345875 0.0 0.57278057843339325 -0.012480726404852007 0.0 </DataArray>
<DataArray Name="radii" format="ascii" type="Float32">2 2 1 2 2 1 2 1 2 1 1 1 2 1 1 1 2 1 1 2 2 2 2 2 1 2 2 1 1 2 2 2 2 2 2 1 2 1 1 2 1 1 1 2 1 2 1 1 1 1 2 1 2 2 </DataArray>
</PointData>
<CellData/>
</Piece>
</UnstructuredGrid>
</VTKFile>
