<?xml version="1.0" ?>
<VTKFile byte_order="LittleEndian" type="UnstructuredGrid" version="0.1">
<UnstructuredGrid>
<Piece NumberOfCells="0" NumberOfPoints="17">
<Points>
<DataArray NumberOfComponents="3" format="ascii" type="Float32">1.0 1 1.0000561806793336 3.1138793452516222 1 0.96931739912670767 5.8062428276699993 1.1344411338624305 1.1371331862509091 8.2103728642718217 1.1638088526306456 1.2 1.1856489625947859 1.1627456303182067 3.5492480683915981 3.9133157219777841 1.1773906007115724 4.0937453457846367 7.303753793185356 1 3.1531635265489251 9.0 1 4.0602797503419001 2.0827360323910282 1 5.6082856207766483 5.0923890843087456 1.1638088526306456 6.3034190304232149 7.4310289941225545 1.163978096883856 5.7026783898514699 1.0 1 7.204604966497989 3.434640038770441 1 7.7356656191390156 8.8079964305686591 1.1638088526306456 7.687088292838979 6.1217115561274573 1 8.2310482490825496 2.8487213703885716 2.2179266549132279 2.5587435672456764 5.5441916023200664 2.1782859156605552 3.2059705468708608 </DataArray>
</Points>
<Cells>
<DataArray Name="connectivity" format="ascii" type="Int32">0</DataArray>
<DataArray Name="offsets" format="ascii" type="Int32">0</DataArray>
<DataArray Name="types" format="ascii" type="UInt8">1</DataArray>
</Cells>
<PointData>
<DataArray Name="Points" NumberOfComponents="3" format="ascii" type="Float32">1.0 1 1.0000561806793336 3.1138793452516222 1 0.96931739912670767 5.8062428276699993 1.1344411338624305 1.1371331862509091 8.2103728642718217 1.1638088526306456 1.2 1.1856489625947859 1.1627456303182067 3.5492480683915981 3.9133157219777841 1.1773906007115724 4.0937453457846367 7.303753793185356 1 3.1531635265489251 9.0 1 4.0602797503419001 2.0827360323910282 1 5.6082856207766483 5.0923890843087456 1.1638088526306456 6.3034190304232149 7.4310289941225545 1.163978096883856 5.7026783898514699 1.0 1 7.204604966497989 3.434640038770441 1 7.7356656191390156 8.8079964305686591 1.1638088526306456 7.687088292838979 6.1217115561274573 1 8.2310482490825496 2.8487213703885716 2.2179266549132279 2.5587435672456764 5.5441916023200664 2.1782859156605552 3.2059705468708608 </DataArray>
<DataArray Name="forces" NumberOfComponents="3" format="ascii" type="Float32">0.0 0.0 0.0 0.0036574588212244653 -0.01712621781633919 -0.021569676068502061 0.0035995778702050288 -0.020645322191465698 -0.044194975961346444 0.0 0.0 0.0 -0.010088689330990485 -0.00074743862043562042 -0.011082212760257771 0.050219452291366207 0.0095478837585960524 -0.097036048110558978 0.06573383091785355 -0.04646467631513141 0.00037691119016189134 0.0 0.0 0.0 -0.067679339984005785 -0.010303161659044643 0.070299373112392718 0.024229123118926735 0.0 0.040138863548164816 -0.004489397045388718 0.00011897764903559955 -0.0064556320767169039 0.0 0.0 0.0 0.0 0.0 0.0 0.0056214405611341471 0.0 0.0081013947226616697 0.0 0.0 0.0 -0.0002334347637024687 0.019235168908190655 0.019422935070404258 -0.069333408788058576 0.067109998506597102 0.043818064771184551 </DataArray>
<DataArray Name="radii" format="ascii" type="Float32">1 1 1.2 1.2 1.2 1.2 1 1 1 1.2 1.2 1 1 1.2 1 1 1 </DataArray>
</PointData>
<CellData/>
</Piece>
</UnstructuredGrid>
</VTKFile>
