<?xml version="1.0" ?>
<VTKFile byte_order="LittleEndian" type="UnstructuredGrid" version="0.1">
<UnstructuredGrid>
<Piece NumberOfCells="0" NumberOfPoints="366">
<Points>
<DataArray NumberOfComponents="3" format="ascii" type="Float32">7.9746434261892549 2.078357532453003 20.359632033317919 20.0 6.8081418639527431 20.0 30.0 6.8081418639527431 20.0 39.361670214383835 2.0186202163592601 18.735188371350397 50.0 6.8081418639527431 20.0 59.027762985960258 5.7228524216596233 19.496399644141871 68.616713915058426 2.064115693425185 17.902940171675237 81.385659365341752 2.078357532453003 18.367903204519664 90.0 6.8081418639527431 20.0 12.48985675706146 12.316413718711438 19.793398551572736 20.0 16.808141863952969 20.0 30.770205671293304 8.7498139417056926 22.683346318879774 40.0 16.808141863952969 20.0 50.0 16.808141863952969 20.0 61.935612751012435 8.8986381595010844 20.355882180688827 70.0 16.808141863952969 20.0 82.11890781099774 7.9956319843633059 17.69882855058599 88.864609673706838 11.423640387807428 18.261503164168484 10.0 26.808141863952969 20.0 19.926438064611641 26.196426411455587 20.420079243502094 26.590862169106959 20.542515699122827 17.928439706529414 39.800811331490451 20.629583549980534 22.078841120325848 50.254543443981177 23.776044996481637 17.635990412815445 59.961364496082169 26.715268475364191 19.992979329440452 71.723604064966196 19.81568653907247 19.365351197406888 79.424015624473441 26.237932820891047 20.391434551928796 89.918068240567521 20.807869210920416 24.043452314195825 11.016264788006032 30.351973061137333 16.855440205872508 20.464837115521782 28.831598262705032 22.877081920506573 28.187792189134477 32.075264350199134 20.401072720983493 40.0 36.808141863952969 20.0 50.737523099452567 29.612896393249166 19.532111864326964 56.998796903686667 30.181217922662423 19.187351969233283 70.651896805646231 32.30321452060344 19.410125635229782 79.588510796894283 30.509963226480771 19.636837081123222 88.881992675039101 29.344217986582304 20.907230686485082 11.737423001778131 36.76224854527733 18.659157321280439 22.715031848038269 43.606851581581573 16.404495662784793 29.998356398813815 37.80800319569304 18.474571279434208 40.832369315346938 39.594543630301928 22.968084515277774 50.295026707082897 40.571862891221741 17.127191535969335 59.408201581494708 37.599447980033489 20.020134219226964 71.459549187873947 38.926797838294554 17.478234035421206 80.322040493297393 42.441340281575563 19.195160238906521 88.70266191601246 37.431206913682978 18.643337058257497 10.390079754214975 52.57813527169057 20.377356592454529 22.180365392241665 50.610113286786714 22.310897769033573 30.164425271231934 48.566826470326141 21.838153200804491 40.0 56.808141863952969 20.0 50.0 56.808141863952969 20.0 59.86354167794309 51.249964933098653 19.722227411827156 70.0 56.808141863952969 20.0 79.836470220312961 56.532687235364072 20.525578802301116 92.693420708171786 52.748033411288411 21.781145362850399 9.6550030557596784 66.587979151766589 20.130622912291248 20.006331006208701 65.570088313155168 19.107693151339664 29.572293987718645 59.259442269594011 19.474459575218436 41.724086921141719 62.815086000325302 19.960297006384028 50.26541136746976 65.493312887278734 20.675143103061181 58.930093865364739 59.331849849624348 18.748670376409684 70.0 66.808141863952969 20.0 79.43838925173371 59.644948647050157 19.597389971475604 90.040944212075019 66.746221964024514 19.802867478965432 8.1918075915764597 69.086387983327882 18.51841181792102 21.40750139065895 71.09888354013151 18.029547440566287 27.464853522953884 72.588515310691108 17.348110098220182 40.0 76.808141863952969 20.0 50.686544373949232 72.43783184145498 20.804998038172453 59.154265857855307 74.511343736931948 19.280336261717139 68.773553151686386 70.947403897580926 19.451811277653583 80.0 76.808141863952969 20.0 91.85585565319785 69.467701301576753 20.347177767031074 11.789570474622613 81.884328111522876 20.284857687293819 20.672985222790039 77.949473566369406 19.409104338744577 30.0 86.808141863952969 20.0 40.0 86.808141863952969 20.0 52.680038302773212 79.412484308278351 20.668480727313447 60.0 86.808141863952969 20.0 71.053814671827041 79.849631915672489 20.307224462264742 77.713728078519253 81.235512660363142 17.549124861908467 90.627965141478512 84.34229228632924 20.489327519370104 9.9923805032452453 6.4041530874181891 17.850861077790515 39.31036675974444 4.2369296925760018 22.621395235995465 71.18649750194642 4.0705718290661164 20.91577880065822 77.286997312670621 2.078357532453003 20.035318299158284 6.9892999226796366 12.606731510744094 19.368904948969096 26.997862685839198 11.269577850828162 15.706494746196032 57.380423403531594 15.798086471125281 19.253387063011875 76.479740139970872 10.037245224264028 21.977954774209763 92.990589823468468 9.9270610990907517 18.573737506676199 28.582240090384207 23.719968767564215 21.797893782283413 41.765574465690094 25.414271943545067 19.122346130898091 49.493625554515653 22.902664430060916 20.612708338381626 66.37418608140834 20.473278209979188 22.410223050007872 89.801733064668795 18.237220084722491 16.063484766460903 12.901634730667153 30.075804221743546 23.054501691376622 20.401402466547918 28.49939000739797 18.279428835517844 31.911654043930049 28.291403108915024 18.805793680734645 49.592364733841478 32.642356266816449 22.702526074240549 61.24000855548941 29.552470190476008 20.226544394374528 67.283565472819376 28.280060406290193 18.451381488671597 81.381562694717843 36.729776037817373 19.244634129356591 91.701832498511251 36.592006200253827 17.810542926493856 14.234825169688863 42.089232869004853 20.286434742134322 20.619605998050318 40.930990427071841 24.216932397937981 28.898657920397081 44.454226782801982 20.923960266704956 35.497519414386822 41.55147198686371 19.743921796252941 49.081152114112598 40.441942432378006 24.432378641851678 59.009361842624116 47.848109265849054 20.798979587497396 68.611589320264613 47.478436524448746 20.857117772956769 81.427065535727905 38.825897551998722 21.634411715784651 89.864719935966406 47.371150455958869 19.474722492206006 10.369765460135227 48.193166423528567 15.354193630309503 19.447608375622718 55.661593002821498 17.96510504711885 32.383923883777349 53.705415948817219 20.128239791190698 61.037526870535331 57.457039278912738 20.217529683546793 90.08851035354482 47.87487077122374 16.333436433637829 31.094018152926672 63.369638961190617 19.846895517859167 38.523616411707856 63.064682461128506 19.927323518883163 62.753438647570817 60.146974389974758 22.335514942622407 80.333142477200553 57.64186491715045 23.451665923097028 12.313777133247413 71.945148863996806 18.85951101924568 24.204704331687907 68.033316397366619 19.872369187417771 29.951127650136051 67.165094072194705 21.754270779595313 47.107596344412663 70.372784010278991 19.23860849075194 59.381959860755458 70.054683109458068 19.822612830169113 70.786044080004359 75.705265197798312 21.896376327497244 89.100642295842846 72.715041884703197 19.240431872646536 9.8750266289210469 88.284087652297814 19.478903389658392 21.271678011441356 87.974863886518165 20.65487899266574 47.294706035539534 80.080707913530034 20.817465809234502 70.861094235950432 87.495922655122968 18.630091304054016 79.738374920441672 86.555878187400538 22.039717196296774 91.061923753290557 81.703052406616067 18.774316630176177 11.711724860968525 4.0136196055788265 21.099327005040063 43.144002066623273 4.3659181702264602 19.081745747575741 66.490136802791184 2.078357532453003 23.736651930123617 79.655356900814255 7.3154803669071988 20.17576912931165 12.47707467266633 7.9826993188001021 19.064438978915192 27.840895614074103 12.029049057489482 22.844473796067884 63.889669555715116 12.794996130817363 19.753951604795038 83.776183163510566 7.4259950518256224 21.753256833782121 90.095890221107709 13.636406907288766 22.475856761435892 32.308477383362792 22.231622556296408 16.119129968635111 39.370596999769774 23.96248811205567 18.498136548261119 48.982658938649337 27.858626403344051 21.48276434703773 69.893338359438189 25.877002288854783 18.700416172215892 87.493481727931766 26.810563760391851 19.598759733679319 6.681492037923892 30.245372609312717 17.650180801080158 20.725122540423904 34.228757209338617 17.793411503148132 27.994086355277588 28.935245284915901 16.908893188810072 50.283304485963377 32.888195922131054 15.493978999621156 59.980515428268063 35.373302075758168 17.856193870636975 71.672845770613563 36.393344004368274 22.768292863352237 80.420214274791903 27.907451702907977 23.086294754592231 87.381459336380487 35.490642784621251 21.84712830003663 4.2843259127038662 38.313068839457884 19.850960254552454 19.748754357272773 38.795515164667158 20.475766069812579 31.432999186823288 40.867372107469343 21.290764186272828 43.321254122798393 38.265147020197993 19.591953803568693 49.228637874002054 37.929434704979911 20.838844972934627 64.101072580377377 41.660227250731182 20.203614598200502 69.671718674287121 38.805649631509525 22.934536654512453 75.48144185020081 39.740223125234024 19.334141048926039 90.670825113067181 41.892752985784924 20.466223003300531 9.8684532295052403 57.88291657029896 22.266828076060296 18.628369212712887 56.848925010941791 20.903363017191239 25.813825780954378 48.519339398130377 20.974110014754526 59.606852776461551 53.756390532419282 22.646142096261645 91.296607027008463 48.588226363531788 22.044524897897006 28.06662453801658 65.410226999535396 18.837214749857043 39.250806563856457 66.726839909096668 22.055236560373263 60.404026240318039 62.588158739928275 15.105706673668509 79.231955036093922 64.262160739542168 18.906966531185965 8.6614262706512442 76.76184532281529 21.986542661701915 14.761459670202038 75.540939650595789 20.485432826939956 33.148768860841727 70.8002713724497 18.989501151185674 52.44075820576915 75.82101728144923 18.419267413157034 62.251531611060486 76.051807770999432 20.341109730675093 71.680975332128341 74.686578975761563 19.021481308835739 87.528251172844463 74.308828398621841 21.844449488387777 10.567743959747009 77.30243248
[...]
<PointData>
<DataArray Name="Points" NumberOfComponents="3" format="ascii" type="Float32">7.9746434261892549 2.078357532453003 20.359632033317919 20.0 6.8081418639527431 20.0 30.0 6.8081418639527431 20.0 39.361670214383835 2.0186202163592601 18.735188371350397 50.0 6.8081418639527431 20.0 59.027762985960258 5.7228524216596233 19.496399644141871 68.616713915058426 2.064115693425185 17.902940171675237 81.385659365341752 2.078357532453003 18.367903204519664 90.0 6.8081418639527431 20.0 12.48985675706146 12.316413718711438 19.793398551572736 20.0 16.808141863952969 20.0 30.770205671293304 8.7498139417056926 22.683346318879774 40.0 16.808141863952969 20.0 50.0 16.808141863952969 20.0 61.935612751012435 8.8986381595010844 20.355882180688827 70.0 16.808141863952969 20.0 82.11890781099774 7.9956319843633059 17.69882855058599 88.864609673706838 11.423640387807428 18.261503164168484 10.0 26.808141863952969 20.0 19.926438064611641 26.196426411455587 20.420079243502094 26.590862169106959 20.542515699122827 17.928439706529414 39.800811331490451 20.629583549980534 22.078841120325848 50.254543443981177 23.776044996481637 17.635990412815445 59.961364496082169 26.715268475364191 19.992979329440452 71.723604064966196 19.81568653907247 19.365351197406888 79.424015624473441 26.237932820891047 20.391434551928796 89.918068240567521 20.807869210920416 24.043452314195825 11.016264788006032 30.351973061137333 16.855440205872508 20.464837115521782 28.831598262705032 22.877081920506573 28.187792189134477 32.075264350199134 20.401072720983493 40.0 36.808141863952969 20.0 50.737523099452567 29.612896393249166 19.532111864326964 56.998796903686667 30.181217922662423 19.187351969233283 70.651896805646231 32.30321452060344 19.410125635229782 79.588510796894283 30.509963226480771 19.636837081123222 88.881992675039101 29.344217986582304 20.907230686485082 11.737423001778131 36.76224854527733 18.659157321280439 22.715031848038269 43.606851581581573 16.404495662784793 29.998356398813815 37.80800319569304 18.474571279434208 40.832369315346938 39.594543630301928 22.968084515277774 50.295026707082897 40.571862891221741 17.127191535969335 59.408201581494708 37.599447980033489 20.020134219226964 71.459549187873947 38.926797838294554 17.478234035421206 80.322040493297393 42.441340281575563 19.195160238906521 88.70266191601246 37.431206913682978 18.643337058257497 10.390079754214975 52.57813527169057 20.377356592454529 22.180365392241665 50.610113286786714 22.310897769033573 30.164425271231934 48.566826470326141 21.838153200804491 40.0 56.808141863952969 20.0 50.0 56.808141863952969 20.0 59.86354167794309 51.249964933098653 19.722227411827156 70.0 56.808141863952969 20.0 79.836470220312961 56.532687235364072 20.525578802301116 92.693420708171786 52.748033411288411 21.781145362850399 9.6550030557596784 66.587979151766589 20.130622912291248 20.006331006208701 65.570088313155168 19.107693151339664 29.572293987718645 59.259442269594011 19.474459575218436 41.724086921141719 62.815086000325302 19.960297006384028 50.26541136746976 65.493312887278734 20.675143103061181 58.930093865364739 59.331849849624348 18.748670376409684 70.0 66.808141863952969 20.0 79.43838925173371 59.644948647050157 19.597389971475604 90.040944212075019 66.746221964024514 19.802867478965432 8.1918075915764597 69.086387983327882 18.51841181792102 21.40750139065895 71.09888354013151 18.029547440566287 27.464853522953884 72.588515310691108 17.348110098220182 40.0 76.808141863952969 20.0 50.686544373949232 72.43783184145498 20.804998038172453 59.154265857855307 74.511343736931948 19.280336261717139 68.773553151686386 70.947403897580926 19.451811277653583 80.0 76.808141863952969 20.0 91.85585565319785 69.467701301576753 20.347177767031074 11.789570474622613 81.884328111522876 20.284857687293819 20.672985222790039 77.949473566369406 19.409104338744577 30.0 86.808141863952969 20.0 40.0 86.808141863952969 20.0 52.680038302773212 79.412484308278351 20.668480727313447 60.0 86.808141863952969 20.0 71.053814671827041 79.849631915672489 20.307224462264742 77.713728078519253 81.235512660363142 17.549124861908467 90.627965141478512 84.34229228632924 20.489327519370104 9.9923805032452453 6.4041530874181891 17.850861077790515 39.31036675974444 4.2369296925760018 22.621395235995465 71.18649750194642 4.0705718290661164 20.91577880065822 77.286997312670621 2.078357532453003 20.035318299158284 6.9892999226796366 12.606731510744094 19.368904948969096 26.997862685839198 11.269577850828162 15.706494746196032 57.380423403531594 15.798086471125281 19.253387063011875 76.479740139970872 10.037245224264028 21.977954774209763 92.990589823468468 9.9270610990907517 18.573737506676199 28.582240090384207 23.719968767564215 21.797893782283413 41.765574465690094 25.414271943545067 19.122346130898091 49.493625554515653 22.902664430060916 20.612708338381626 66.37418608140834 20.473278209979188 22.410223050007872 89.801733064668795 18.237220084722491 16.063484766460903 12.901634730667153 30.075804221743546 23.054501691376622 20.401402466547918 28.49939000739797 18.279428835517844 31.911654043930049 28.291403108915024 18.805793680734645 49.592364733841478 32.642356266816449 22.702526074240549 61.24000855548941 29.552470190476008 20.226544394374528 67.283565472819376 28.280060406290193 18.451381488671597 81.381562694717843 36.729776037817373 19.244634129356591 91.701832498511251 36.592006200253827 17.810542926493856 14.234825169688863 42.089232869004853 20.286434742134322 20.619605998050318 40.930990427071841 24.216932397937981 28.898657920397081 44.454226782801982 20.923960266704956 35.497519414386822 41.55147198686371 19.743921796252941 49.081152114112598 40.441942432378006 24.432378641851678 59.009361842624116 47.848109265849054 20.798979587497396 68.611589320264613 47.478436524448746 20.857117772956769 81.427065535727905 38.825897551998722 21.634411715784651 89.864719935966406 47.371150455958869 19.474722492206006 10.369765460135227 48.193166423528567 15.354193630309503 19.447608375622718 55.661593002821498 17.96510504711885 32.383923883777349 53.705415948817219 20.128239791190698 61.037526870535331 57.457039278912738 20.217529683546793 90.08851035354482 47.87487077122374 16.333436433637829 31.094018152926672 63.369638961190617 19.846895517859167 38.523616411707856 63.064682461128506 19.927323518883163 62.753438647570817 60.146974389974758 22.335514942622407 80.333142477200553 57.64186491715045 23.451665923097028 12.313777133247413 71.945148863996806 18.85951101924568 24.204704331687907 68.033316397366619 19.872369187417771 29.951127650136051 67.165094072194705 21.754270779595313 47.107596344412663 70.372784010278991 19.23860849075194 59.381959860755458 70.054683109458068 19.822612830169113 70.786044080004359 75.705265197798312 21.896376327497244 89.100642295842846 72.715041884703197 19.240431872646536 9.8750266289210469 88.284087652297814 19.478903389658392 21.271678011441356 87.974863886518165 20.65487899266574 47.294706035539534 80.080707913530034 20.817465809234502 70.861094235950432 87.495922655122968 18.630091304054016 79.738374920441672 86.555878187400538 22.039717196296774 91.061923753290557 81.703052406616067 18.774316630176177 11.711724860968525 4.0136196055788265 21.099327005040063 43.144002066623273 4.3659181702264602 19.081745747575741 66.490136802791184 2.078357532453003 23.736651930123617 79.655356900814255 7.3154803669071988 20.17576912931165 12.47707467266633 7.9826993188001021 19.064438978915192 27.840895614074103 12.029049057489482 22.844473796067884 63.889669555715116 12.794996130817363 19.753951604795038 83.776183163510566 7.4259950518256224 21.753256833782121 90.095890221107709 13.636406907288766 22.475856761435892 32.308477383362792 22.231622556296408 16.119129968635111 39.370596999769774 23.96248811205567 18.498136548261119 48.982658938649337 27.858626403344051 21.48276434703773 69.893338359438189 25.877002288854783 18.700416172215892 87.493481727931766 26.810563760391851 19.598759733679319 6.681492037923892 30.245372609312717 17.650180801080158 20.725122540423904 34.228757209338617 17.793411503148132 27.994086355277588 28.935245284915901 16.908893188810072 50.283304485963377 32.888195922131054 15.493978999621156 59.980515428268063 35.373302075758168 17.856193870636975 71.672845770613563 36.393344004368274 22.768292863352237 80.420214274791903 27.907451702907977 23.086294754592231 87.381459336380487 35.490642784621251 21.84712830003663 4.2843259127038662 38.313068839457884 19.850960254552454 19.748754357272773 38.795515164667158 20.475766069812579 31.432999186823288 40.867372107469343 21.290764186272828 43.321254122798393 38.265147020197993 19.591953803568693 49.228637874002054 37.929434704979911 20.838844972934627 64.101072580377377 41.660227250731182 20.203614598200502 69.671718674287121 38.805649631509525 22.934536654512453 75.48144185020081 39.740223125234024 19.334141048926039 90.670825113067181 41.892752985784924 20.466223003300531 9.8684532295052403 57.88291657029896 22.266828076060296 18.628369212712887 56.848925010941791 20.903363017191239 25.813825780954378 48.519339398130377 20.974110014754526 59.606852776461551 53.756390532419282 22.646142096261645 91.296607027008463 48.588226363531788 22.044524897897006 28.06662453801658 65.410226999535396 18.837214749857043 39.250806563856457 66.726839909096668 22.055236560373263 60.404026240318039 62.588158739928275 15.105706673668509 79.231955036093922 64.262160739542168 18.906966531185965 8.6614262706512442 76.76184532281529 21.986542661701915 14.761459670202038 75.540939650595789 20.485432826939956 33.148768860841727 70.8002713724497 18.989501151185674 52.44075820576915 75.82101728144923 18.419267413157034 62.251531611060486 76.051807770999432 20.341109730675093 71.680975332128341 74.686578975761563 19.021481308835739 87.528251172844463 74.308828398621841 21.844449488387777 10.567743959747009 77.302432487503594 18.398629618472071 18.831730476469453 81.878333229092263 18.352747518724428 50.283722802677325 84.44925182958896 21.431454928257779 67.629897312528058 84.246759234397786 20.02306177534577 80.488892003418869 79.756371370179167 21.261223204433946 87.258166522524277 81.108397489710327 21.648158758682719 35.198372287670793 3.3454735801573032 18.058300186045049 75.763676170248416 4.7299135570021296 17.558981326489931 80.456988821540691 2.078357532453003 23.086862189577133 8.5543722865976601 16.235395427572772 22.383493778170433 31.326017791592502 13.152909674167541 19.740211819008771 58.215617705716717 13.686035036887059 21.48288138173778 77.863041508687587 14.01210528361101 17.926297210548931 92.396703856477231 15.597030780426891 20.473124420938969 30.956731229424499 16.441687573909039 24.147897549147959 67.468537235970331 19.815421059903812 17.609444532798101 92.540418110164339 18.613768604002477 19.480898707216536 9.0422887606704503 33.824043799424906 23.169962540682153 16.350580640878619 29.399417413399064 16.824141390378688 35.537451185561167 32.856607393248105 19.838348603289404 53.608329383028064 32.964820403338464 19.380858912182255 63.839610722269676 30.066048612744815 23.967178342198658 66.37633150796087 35.040220632257466 20.09559796770186 10.280341215667672 45.225191964278551 20.65490466170192 16.922701881911944 38.511404604026197 24.517029803238064 26.139339233019967 45.725315337786299 19.53059191333406 39.021040888312115 39.644280343513188 17.92515944912952 51.908020940659803 43.743248547465477 23.755858178880672 84.662036888068386 38.809206868007038 17.695848348904217 8.6280594398666661 47.664665251537237 19.493280145298602 31.9308854835175 49.597346401662357 15.684796513141819 89.796989571087281 55.666591285318702 18.394308923503957 29.74261909555911 62.805803512448946 24.292427965550775 59.05300352861353 65.707805220324104 22.529149881680993 84.557553901740221 57.247616345094066 16.239902558060635 12.298794509591682 69.53588302216167 23.120254808900775 20.352263623472481 67.185324123972634 21.834096291081075 33.136700504742436 69.786790110492518 23.282583208659517 47.573549535005874 65.125797566255656 22.362878978111365 59.558893431790501 67.973083885165863 22.222995717832394 92.082672380486954 76.278227302018635 18.314916134929522 48.965960463047942 83.767136458376029 18.520201871241323 10.163361730459082 5.0956576231776269 22.070233780177194 41.027828619094244 1.6613772501532633 21.907059270249412 65.857083520512447 2.9662827636041356 19.316784729265628 79.976113134318979 5.9080975683840302 16.752790308101986 9.3029321385342989 9.6951378390935847 21.720503906122786 32.884470147101823 10.459399140316874 20.368053937373944 61.74308478598617 4.5785361090905505 21.171002058673345 78.471919520395133 9.9957172684671018 16.235762897349922 87.036050291812842 12.089613959257328 22.207944644610869 29.736775480270182 18.801135470654391 20.452781017522405 37.322958147614337 24.202562729080938 20.943601456315825 51.448539327243076 23.775158580244934 20.658064174208587 75.52916808437233 21.25323618191273 21.030235559899491 90.243565481412872 22.610408865354387 20.04281966251575 10.545507951622973 32.904534401830382 20.409452003051058 18.629351690550727 35.125943073963398 21.966463128447998 28.162375473338571 33.110522485721468 23.542456555084875 46.572965032317079 27.997602816879819 19.382883670638126 58.743602348136086 33.508684290112718 21.539275711964574 74.054963354400101 30.974874760144473 21.860927167857295 76.000176962955209 32.590700371263239 18.168777789333696 92.219165900979021 32.141381914604878 20.36492794586438 10.740237775051648 39.805683131075511 21.676950929420631 21.938315755639692 39.287623951342034 16.698178981766961 34.298857429668026 37.19273670581584 19.224697189657352 40.130024775593242 45.068228221350807 20.896668252937239 52.500739997435424 44.901654059464789 18.83344561251549 58.135255091031446 43.741414401418815 19.738791459578152 71.362018815132302 43.466047912222955 18.681278087635597 80.310759324021163 48.287047927685684 21.073604869578805 92.832418974382335 38.062203007399347 20.403791498218112 12.936961625273055 52.950534368844728 22.31758265402248 18.693426170304029 50.040741748976494 19.688410635002203 32.197593393102423 50.557655374589203 20.275395806276734 59.964031722665794 48.003125551405645 16.75437822624929 89.093737559076089 55.244905987190236 22.182490065017241 30.266063075107802 55.778349869442117 16.875250806686594 41.294352675882088 66.162181640865327 17.036153470939603 55.762440041148096 61.577039347588375 20.808849558868374 76.040419238317895 62.059835925412742 21.005384531567966 6.7158475755623055 70.751169068410562 22.314501802310435 21.140366002602615 74.864529107233778 22.30984213329652 27.936019346166407 74.266158562453754 20.559367542873627 49.786870979888626 78.355303815839264 19.855617383458075 60.721502128006762 73.18927809230712 16.842098731714994 67.250573655211582 76.179831492632815 17.721934385909549 89.382948437843183 66.838393406064625 22.933034590150307 7.7244833862038353 81.131245497967711 21.975371121068285 18.281422724579571 81.41231733547346 21.467083733759388 51.776041696465654 78.882275866693178 16.33654613393124 69.91308556278257 84.870121457433854 22.517335945928075 81.748949110253832 79.553768878061604 17.050377887957548 90.827523374138877 88.850589970851772 21.030466654124943 40.407024643447642 8.8041424164463482 22.236442815134009 72.965412160438476 2.3210959548914971 17.209037117740646 76.2795869086561 2.078357532453003 24.472691191036823 4.5793568517221104 8.9547266963815115 19.845657599790062 29.529242870512189 13.253655697413921 17.101527174075361 55.355571364270737 11.632833864346196 19.816342049539593 77.37854741464696 16.132587907777868 23.136843190822791 91.109464095091312 12.803184575515864 16.140026362134385 31.656996501644151 21.106114894918694 23.655044342468642 66.582112104907438 26.241144622348614 20.795687397468601 91.990636684818355 23.565273478673703 15.21238694805732 13.619149757480438 34.930777740501398 20.554774101917538 22.463340334897616 31.424491697241415 17.036879762245377 30.820536262021534 27.682549402285275 23.024664117638931 47.672789854566822 33.291833303913847 25.25745963561716 62.991187076191615 26.095534499841705 18.030810739214132 69.138709898488372 32.14674775233609 16.597272380864233 12.405442598180315 45.47356251683906 18.15081130886993 18.486542211229914 46.261338247618632 23.54436551831278 29.879245053822498 42.281993234067549 17.21708708302349 38.456009968960387 43.976985041861234 20.81377960402218 46.869612046535721 41.519897911226344 19.910699179696209 78.211537216648324 36.306254752485522 18.987806637293087 7.473014937305237 51.274428366609371 17.278093814311486 28.256556358199941 51.962750152953973 17.764232748992075 87.381555903498722 52.129904521081386 16.736326893120978 34.104265796578815 60.261453032822018 20.645893019629327 59.679049244986153 61.039546973757353 23.171100366104906 83.659253890911529 57.495049025626862 20.540116115686768 13.347564444613768 70.97472733854336 14.683290800259661 21.600499060241141 67.944769067986087 18.016906975320659 29.720269138378786 71.009291452287897 18.992797509453563 50.225141551567795 67.45936920551911 18.173516100141139 57.385307899376414 72.624880649460209 22.835129176413904 89.370369539256373 74.517267160032688 15.235361711406185 45.267577034177897 84.748783524579665 22.186691813257212 42.645594606118564 6.3509144040277237 16.351943251713379 70.809809349824462 2.0267336279047177 24.829829391061772 14.627322007656295 10.272459344021065 17.4128423378679 28.802944130148965 15.774845861517584 20.563665427295874 59.554409010943196 11.962837163570761 18.281603532456682 82.824279994456219 11.435052910918307 23.302213430911848 30.549540946054147 18.198318457222694 16.173390188460633 4.969582551199534 26.770362658044817 19.736854890930701 21.81691386474284 32.888165434179996 21.839539223588364 28.736805361821911 33.263800576143801 16.199667321821451 82.000928988133154 26.940103421894641 18.638629560967999 6.9143750602322838 41.740143358601188 20.686582929540855 17.028902764913532 40.223487728580224 17.29982365807988 28.846402829489598 39.486713080904558 24.571633614018719 42.784741964840023 41.627180342446152 16.80133009678784 50.380892076009488 35.321187438948847 17.518549919224665 60.459799514830067 41.520396771997966 17.737493675324004 69.342702633754868 41.673707561846555 20.37052799447018 77.856512602217094 41.120661735239246 22.770645665371944 87.001303462204518 41.658731014790462 22.883176408948227 27.598629979728386 51.775736337976319 23.421958548023976 86.781302632840848 48.025164621544143 21.33411634322572 63.085014587703583 60.593472247620177 17.96968752997298 77.824119450649931 69.948913799640721 20.333081491400918 18.702287833149761 73.638803699760786 20.409796354410712 31.189846140498044 74.713180004983769 18.528870407445485 8.4908392441088143 78.384201057585656 20.580403786554673 18.720106695781102 87.147783160187871 20.722542622406401 83.377529436941671 82.709441421713464 22.056799780299635 88.593126480566369 81.855301125960096 18.746188373094594 35.473544605412044 2.0144442747519764 22.272427167944265 84.647415419216159 2.078357532453003 21.744062985635658 32.985919183562032 13.871780027271532 16.911360952194389 79.032809961467407 15.743007073785465 20.79784437696507 34.982815813010376 18.260863722600764 24.095419289993199 68.762277163291003 19.533328698977183 20.518018065705686 89.39162006755906 16.84284829395126 22.209809303469289 16.900795160945147 33.794703150017 19.706705421179876 33.496539886655121 32.369306706175905 22.249608810344867 51.995778407568558 35.935825086530826 21.842948552704264 61.685581752190096 33.629327321181215 22.798578825752841 17.194359357241524 37.266025720174198 21.595276151717989 38.716669160907557 41.403938172149367 13.903318489181853 48.057484838912252 45.138267846172539 22.112255641307236 84.403712220873686 35.575102159474376 20.680350738052827 5.79170042923508 46.871811964349476 22.757358075492533 35.192362222871196 52.537507504488623 15.964761117045839 26.96935462949493 59.510323498036307 23.392990923229643 80.52296002298624 55.96223604406056 