<?xml version="1.0" ?>
<VTKFile byte_order="LittleEndian" type="UnstructuredGrid" version="0.1">
<UnstructuredGrid>
<Piece NumberOfCells="0" NumberOfPoints="366">
<Points>
<DataArray NumberOfComponents="3" format="ascii" type="Float32">8.2044756944060282 6.250829708541298 20.539258383008178 20.0 8.2155753727609824 20.0 30.0 8.2155753727609824 20.0 40.843291754463024 2.204650810601088 19.482318376143201 50.0 8.2155753727609824 20.0 60.0 8.2155753727609824 20.0 68.656739585705736 4.7855703207203337 18.776119251202754 81.227732298672748 5.9840046635387756 18.302345530534414 90.0 8.2155753727609824 20.0 11.691568477337311 17.028526808348524 20.01176333382303 20.0 18.215575372761108 20.0 30.964502601608743 14.222093600647733 22.074267945252771 40.0 18.215575372761108 20.0 50.0 18.215575372761108 20.0 61.71121137412154 13.745501729820893 20.186264478355369 70.0 18.215575372761108 20.0 81.369022617397235 14.192490532853531 18.236362990575326 88.414202521039854 16.986916058626235 19.358068173263234 10.0 28.215575372761108 20.0 20.0 28.215575372761108 20.0 27.78981166744877 25.208806185121219 18.886691259838976 39.33534777269616 26.844175670244379 21.749823104177931 50.593755057715022 28.106388584592764 18.7862910770843 60.0 28.215575372761108 20.0 71.968701254790417 25.562786217988055 19.72511497328269 80.0 28.215575372761108 20.0 89.954626383017171 26.683906613678609 23.055176777243211 10.18159360705522 36.375217515513746 18.096352225073897 20.522301873998369 34.96813319030359 22.474512801139383 28.235927045969252 37.000176141994388 20.950942127633997 40.0 38.215575372761108 20.0 49.957600891554883 34.975701849964459 19.553689425343784 57.500513874421927 36.535718987064925 19.83253068896525 71.024592607539162 36.449709309450206 19.215687837877731 78.853686319462483 36.092585479070273 19.648578961070335 89.558635831453188 35.111585402482469 20.52691117826544 11.151285667556749 43.075946337826501 19.66783563459698 22.26687530980162 47.783220338948503 16.822047461570087 31.040870085132678 43.483959893966983 18.925035970380858 40.801683576393806 45.183008321178676 22.756895134185935 50.433650891985707 46.100036265778137 17.435175961699073 59.364906883653973 43.276521985871462 19.97225189280114 71.285159931653865 45.252185572106526 17.904318188581858 80.129810882411363 47.890137503810593 19.564519675160543 89.558667341767475 43.13889477232847 18.992107321447179 10.631810456412405 56.664943975181359 20.347325913214636 21.669335409449822 55.803932283121043 21.550599832718195 30.090816278947958 54.173623224514628 21.680428886504078 40.0 58.215575372761108 20.0 50.0 58.215575372761108 20.0 59.851534702413964 55.857567443352501 19.431859977671746 70.0 58.215575372761108 20.0 80.0 58.215575372761108 20.0 91.328007749385293 57.777032852947613 21.754861238036007 10.0 68.215575372761108 20.0 20.0 68.215575372761108 20.0 30.257637758148977 64.324709357127588 19.041260362290103 40.834120110533711 67.729236304714931 19.648910798906659 50.0 68.215575372761108 20.0 59.100797930224765 65.270401586712268 19.314431041710613 70.0 68.215575372761108 20.0 78.81381537854395 65.464415529828173 20.263544713486244 90.0 68.215575372761108 20.0 8.5612755828309144 74.789494688193841 19.582488174896394 20.840307758022956 76.497603427161522 19.326588034860858 27.854715905144612 77.709079897537691 18.236397907419796 40.0 78.215575372761108 20.0 50.303057612218005 77.747399856431343 20.589432068151094 59.724291311629258 78.33042517052337 18.413041446912644 68.810098886241732 76.562358750119287 19.288280517623537 80.0 78.215575372761108 20.0 91.109434786894838 74.572503533472187 20.815631539137371 10.86588055984531 86.844442107734096 20.576323747355868 20.275013861326958 83.531039291665763 19.649126006478966 30.0 88.215575372761108 20.0 40.0 88.215575372761108 20.0 52.385896295576806 84.754455443741236 19.661350131684134 60.0 88.215575372761108 20.0 70.960594934842575 85.438540850103038 20.487833521488323 78.574116035398816 86.369386350083062 17.552112890858819 90.734321405177226 88.179796448371263 19.944533492727569 10.381897896535209 8.1936627217095594 18.046461167264795 39.442834104591533 8.1355054371439426 21.719966145068621 71.170844493978151 6.7641953454987593 20.581291874904576 77.966243049367094 3.3290768349451891 21.432764324804296 7.260031800382138 16.649842689721073 19.894649846747669 27.634394544006184 16.44511061906416 16.097461633967153 57.846589945162755 19.288118189377837 19.414761226940001 76.524658164326951 15.641651502359721 22.03587039148394 92.598453808687253 15.29986618261832 18.176723383472481 29.484343345274354 28.111371494489894 22.25407193917108 41.765574465690094 26.821705452353207 19.122346130898091 49.734319023657811 24.585869797837432 20.358124979153189 66.520917723449415 26.007607310498681 22.211666743619482 90.196098355815224 23.841554297376849 16.342905083571949 12.906960491155939 35.686937016904771 22.806951720524882 20.368404180309497 33.48294087682536 18.499480301561096 31.535363321760613 33.674378517239653 19.711739123139882 49.642252387427945 37.228389135103207 23.143954485341329 61.395875929198134 34.268415664532803 19.863785148908487 67.618186218816533 33.813482691236672 18.466738578577928 81.645377296392056 38.854302880205367 19.817430248953748 91.646444871222627 37.911108697728366 18.261256502037941 12.894862710275843 48.036043644410981 19.95517006775821 19.985814914816132 45.840154927667001 23.455821062257385 28.984759609383822 49.331756611411151 20.037230170995027 36.242469695959763 46.753212289781906 19.905048631623202 48.849870116096007 45.46164849721788 22.567782809400367 59.009361842624116 49.255542774657194 20.798979587497396 68.611589320264613 48.885870033256886 20.857117772956769 80.705869883193373 43.272050966426747 20.71392974738519 90.342116671043584 49.98890886848325 19.729466731263997 9.8872805590694579 54.25017012774444 16.175548275767714 19.442492479577613 56.997075941923569 18.052288109444817 31.263187106986159 57.866302346091082 19.360794429552858 60.467724904302813 59.644555605708568 19.877503015972213 89.824672846006848 53.185868535840008 17.037828187761161 30.981559268694291 68.249020091592769 20.384404181688566 39.378821325819601 65.130124625069001 19.929144437968599 61.849355170675238 64.943298119949006 22.50860405783175 81.079152722205563 63.299057782856707 22.092332015563496 12.436649700275371 76.512184504619299 18.059480154303031 22.520260324087872 73.20192693829425 19.103235115422539 30.259687583794268 71.726159941616743 21.211545622574853 48.266263631094951 74.940973234574813 19.33316614380217 58.926857020530882 74.446400395561156 21.389451805808513 70.786044080004359 77.112698706606452 21.896376327497244 88.938562639658372 78.17037698447254 18.816192367575805 9.8750266289210469 89.691521161105953 19.478903389658392 21.271678011441356 89.382297395326304 20.65487899266574 47.275287985624793 85.557366968176041 20.893316572166309 70.861094235950432 88.903356163931107 18.630091304054016 79.738374920441672 87.963311696208677 22.039717196296774 90.900921835545745 84.841306209753256 19.393890765158734 11.711724860968525 5.4210531143870657 21.099327005040063 41.22712404925997 6.3635651888748228 18.885199565276313 67.901141199616546 6.356620198222104 23.367640539082817 79.655356900814255 8.7229138757154381 20.17576912931165 12.377251183342947 13.373563473779074 18.86952728403984 28.430911485573837 17.211530871786287 22.45504606443599 62.343330506889863 17.242581229574743 19.643022176847758 83.278207689504057 14.117862762453493 21.11681677532729 89.289588401617834 15.334354583563377 22.348257323302878 31.819205555848221 26.726553231639993 16.355713376604267 39.043595152529974 25.639367948208974 18.895851055520968 48.983968208782244 29.408443922836462 21.301808910262412 69.893338359438189 27.284435797662923 18.700416172215892 88.116526799490771 28.744451504819459 19.976656423906153 6.9577160535303131 34.962523460491234 18.132496476194696 20.885938416268257 39.236696034717937 18.873249343531196 28.264112153589888 35.306963793254681 16.957617194104813 50.276206804674516 35.899763917377726 16.606322843771551 59.980515428268063 36.780735584566308 17.856193870636975 71.674661993827414 37.818294841738407 22.70668306191439 80.43904844330568 33.508435948369097 21.81769923110965 87.367946227526332 36.899492605238812 21.841833427237802 5.4342632935153778 44.693763029619355 20.132417190660089 19.3167080570949 44.744620354512087 19.823292470827752 30.576304066041509 45.985064539384929 21.745360093156712 43.087389910916002 44.489260635726765 19.036052379523849 49.554755012389535 42.777761831682241 20.00568834864206 62.989642564740493 47.060514236300108 19.627476424093533 69.747224720122844 44.200911730996026 22.487005672116293 76.187564816259922 45.466120450607974 20.014526811490203 89.952238972482064 47.044899258129732 21.016377591529299 9.8684532295052403 59.2903500791071 22.266828076060296 18.628369212712887 58.256358519749931 20.903363017191239 25.929579409027212 54.82398201390901 21.571463757182414 59.652511122185537 55.255164256329238 22.088872645966546 90.202534754046795 54.383179732740821 21.252708578293628 28.595558856991133 66.985796717137191 19.136987252772705 39.356783571676473 68.079921511789664 21.913020527381178 60.865332540065992 67.550109042674322 15.865236737536932 79.068201680545769 69.799833740292343 19.044560199946872 8.6614262706512442 78.16927883162343 21.986542661701915 16.777858817333875 79.864387236805086 20.392269005666122 32.557493818275667 77.048563372778858 19.409416133467353 52.44075820576915 77.228450790257369 18.419267413157034 62.248274305012053 77.459041530549996 20.339430195275586 71.507128756750234 76.085574739640876 19.045793146250247 88.06516182424032 76.202105248702281 20.90477172622855 10.028254538514416 82.630228798189549 19.014966993117721 18.860241819687957 87.268666758005722 18.710341766098416 49.956565629269285 86.292025792277883 20.774368816934029 67.629897312528058 85.654192743205925 20.02306177534577 81.096496942499201 85.107332396873716 20.835625742063485 87
[...]
<PointData>
<DataArray Name="Points" NumberOfComponents="3" format="ascii" type="Float32">8.2044756944060282 6.250829708541298 20.539258383008178 20.0 8.2155753727609824 20.0 30.0 8.2155753727609824 20.0 40.843291754463024 2.204650810601088 19.482318376143201 50.0 8.2155753727609824 20.0 60.0 8.2155753727609824 20.0 68.656739585705736 4.7855703207203337 18.776119251202754 81.227732298672748 5.9840046635387756 18.302345530534414 90.0 8.2155753727609824 20.0 11.691568477337311 17.028526808348524 20.01176333382303 20.0 18.215575372761108 20.0 30.964502601608743 14.222093600647733 22.074267945252771 40.0 18.215575372761108 20.0 50.0 18.215575372761108 20.0 61.71121137412154 13.745501729820893 20.186264478355369 70.0 18.215575372761108 20.0 81.369022617397235 14.192490532853531 18.236362990575326 88.414202521039854 16.986916058626235 19.358068173263234 10.0 28.215575372761108 20.0 20.0 28.215575372761108 20.0 27.78981166744877 25.208806185121219 18.886691259838976 39.33534777269616 26.844175670244379 21.749823104177931 50.593755057715022 28.106388584592764 18.7862910770843 60.0 28.215575372761108 20.0 71.968701254790417 25.562786217988055 19.72511497328269 80.0 28.215575372761108 20.0 89.954626383017171 26.683906613678609 23.055176777243211 10.18159360705522 36.375217515513746 18.096352225073897 20.522301873998369 34.96813319030359 22.474512801139383 28.235927045969252 37.000176141994388 20.950942127633997 40.0 38.215575372761108 20.0 49.957600891554883 34.975701849964459 19.553689425343784 57.500513874421927 36.535718987064925 19.83253068896525 71.024592607539162 36.449709309450206 19.215687837877731 78.853686319462483 36.092585479070273 19.648578961070335 89.558635831453188 35.111585402482469 20.52691117826544 11.151285667556749 43.075946337826501 19.66783563459698 22.26687530980162 47.783220338948503 16.822047461570087 31.040870085132678 43.483959893966983 18.925035970380858 40.801683576393806 45.183008321178676 22.756895134185935 50.433650891985707 46.100036265778137 17.435175961699073 59.364906883653973 43.276521985871462 19.97225189280114 71.285159931653865 45.252185572106526 17.904318188581858 80.129810882411363 47.890137503810593 19.564519675160543 89.558667341767475 43.13889477232847 18.992107321447179 10.631810456412405 56.664943975181359 20.347325913214636 21.669335409449822 55.803932283121043 21.550599832718195 30.090816278947958 54.173623224514628 21.680428886504078 40.0 58.215575372761108 20.0 50.0 58.215575372761108 20.0 59.851534702413964 55.857567443352501 19.431859977671746 70.0 58.215575372761108 20.0 80.0 58.215575372761108 20.0 91.328007749385293 57.777032852947613 21.754861238036007 10.0 68.215575372761108 20.0 20.0 68.215575372761108 20.0 30.257637758148977 64.324709357127588 19.041260362290103 40.834120110533711 67.729236304714931 19.648910798906659 50.0 68.215575372761108 20.0 59.100797930224765 65.270401586712268 19.314431041710613 70.0 68.215575372761108 20.0 78.81381537854395 65.464415529828173 20.263544713486244 90.0 68.215575372761108 20.0 8.5612755828309144 74.789494688193841 19.582488174896394 20.840307758022956 76.497603427161522 19.326588034860858 27.854715905144612 77.709079897537691 18.236397907419796 40.0 78.215575372761108 20.0 50.303057612218005 77.747399856431343 20.589432068151094 59.724291311629258 78.33042517052337 18.413041446912644 68.810098886241732 76.562358750119287 19.288280517623537 80.0 78.215575372761108 20.0 91.109434786894838 74.572503533472187 20.815631539137371 10.86588055984531 86.844442107734096 20.576323747355868 20.275013861326958 83.531039291665763 19.649126006478966 30.0 88.215575372761108 20.0 40.0 88.215575372761108 20.0 52.385896295576806 84.754455443741236 19.661350131684134 60.0 88.215575372761108 20.0 70.960594934842575 85.438540850103038 20.487833521488323 78.574116035398816 86.369386350083062 17.552112890858819 90.734321405177226 88.179796448371263 19.944533492727569 10.381897896535209 8.1936627217095594 18.046461167264795 39.442834104591533 8.1355054371439426 21.719966145068621 71.170844493978151 6.7641953454987593 20.581291874904576 77.966243049367094 3.3290768349451891 21.432764324804296 7.260031800382138 16.649842689721073 19.894649846747669 27.634394544006184 16.44511061906416 16.097461633967153 57.846589945162755 19.288118189377837 19.414761226940001 76.524658164326951 15.641651502359721 22.03587039148394 92.598453808687253 15.29986618261832 18.176723383472481 29.484343345274354 28.111371494489894 22.25407193917108 41.765574465690094 26.821705452353207 19.122346130898091 49.734319023657811 24.585869797837432 20.358124979153189 66.520917723449415 26.007607310498681 22.211666743619482 90.196098355815224 23.841554297376849 16.342905083571949 12.906960491155939 35.686937016904771 22.806951720524882 20.368404180309497 33.48294087682536 18.499480301561096 31.535363321760613 33.674378517239653 19.711739123139882 49.642252387427945 37.228389135103207 23.143954485341329 61.395875929198134 34.268415664532803 19.863785148908487 67.618186218816533 33.813482691236672 18.466738578577928 81.645377296392056 38.854302880205367 19.817430248953748 91.646444871222627 37.911108697728366 18.261256502037941 12.894862710275843 48.036043644410981 19.95517006775821 19.985814914816132 45.840154927667001 23.455821062257385 28.984759609383822 49.331756611411151 20.037230170995027 36.242469695959763 46.753212289781906 19.905048631623202 48.849870116096007 45.46164849721788 22.567782809400367 59.009361842624116 49.255542774657194 20.798979587497396 68.611589320264613 48.885870033256886 20.857117772956769 80.705869883193373 43.272050966426747 20.71392974738519 90.342116671043584 49.98890886848325 19.729466731263997 9.8872805590694579 54.25017012774444 16.175548275767714 19.442492479577613 56.997075941923569 18.052288109444817 31.263187106986159 57.866302346091082 19.360794429552858 60.467724904302813 59.644555605708568 19.877503015972213 89.824672846006848 53.185868535840008 17.037828187761161 30.981559268694291 68.249020091592769 20.384404181688566 39.378821325819601 65.130124625069001 19.929144437968599 61.849355170675238 64.943298119949006 22.50860405783175 81.079152722205563 63.299057782856707 22.092332015563496 12.436649700275371 76.512184504619299 18.059480154303031 22.520260324087872 73.20192693829425 19.103235115422539 30.259687583794268 71.726159941616743 21.211545622574853 48.266263631094951 74.940973234574813 19.33316614380217 58.926857020530882 74.446400395561156 21.389451805808513 70.786044080004359 77.112698706606452 21.896376327497244 88.938562639658372 78.17037698447254 18.816192367575805 9.8750266289210469 89.691521161105953 19.478903389658392 21.271678011441356 89.382297395326304 20.65487899266574 47.275287985624793 85.557366968176041 20.893316572166309 70.861094235950432 88.903356163931107 18.630091304054016 79.738374920441672 87.963311696208677 22.039717196296774 90.900921835545745 84.841306209753256 19.393890765158734 11.711724860968525 5.4210531143870657 21.099327005040063 41.22712404925997 6.3635651888748228 18.885199565276313 67.901141199616546 6.356620198222104 23.367640539082817 79.655356900814255 8.7229138757154381 20.17576912931165 12.377251183342947 13.373563473779074 18.86952728403984 28.430911485573837 17.211530871786287 22.45504606443599 62.343330506889863 17.242581229574743 19.643022176847758 83.278207689504057 14.117862762453493 21.11681677532729 89.289588401617834 15.334354583563377 22.348257323302878 31.819205555848221 26.726553231639993 16.355713376604267 39.043595152529974 25.639367948208974 18.895851055520968 48.983968208782244 29.408443922836462 21.301808910262412 69.893338359438189 27.284435797662923 18.700416172215892 88.116526799490771 28.744451504819459 19.976656423906153 6.9577160535303131 34.962523460491234 18.132496476194696 20.885938416268257 39.236696034717937 18.873249343531196 28.264112153589888 35.306963793254681 16.957617194104813 50.276206804674516 35.899763917377726 16.606322843771551 59.980515428268063 36.780735584566308 17.856193870636975 71.674661993827414 37.818294841738407 22.70668306191439 80.43904844330568 33.508435948369097 21.81769923110965 87.367946227526332 36.899492605238812 21.841833427237802 5.4342632935153778 44.693763029619355 20.132417190660089 19.3167080570949 44.744620354512087 19.823292470827752 30.576304066041509 45.985064539384929 21.745360093156712 43.087389910916002 44.489260635726765 19.036052379523849 49.554755012389535 42.777761831682241 20.00568834864206 62.989642564740493 47.060514236300108 19.627476424093533 69.747224720122844 44.200911730996026 22.487005672116293 76.187564816259922 45.466120450607974 20.014526811490203 89.952238972482064 47.044899258129732 21.016377591529299 9.8684532295052403 59.2903500791071 22.266828076060296 18.628369212712887 58.256358519749931 20.903363017191239 25.929579409027212 54.82398201390901 21.571463757182414 59.652511122185537 55.255164256329238 22.088872645966546 90.202534754046795 54.383179732740821 21.252708578293628 28.595558856991133 66.985796717137191 19.136987252772705 39.356783571676473 68.079921511789664 21.913020527381178 60.865332540065992 67.550109042674322 15.865236737536932 79.068201680545769 69.799833740292343 19.044560199946872 8.6614262706512442 78.16927883162343 21.986542661701915 16.777858817333875 79.864387236805086 20.392269005666122 32.557493818275667 77.048563372778858 19.409416133467353 52.44075820576915 77.228450790257369 18.419267413157034 62.248274305012053 77.459041530549996 20.339430195275586 71.507128756750234 76.085574739640876 19.045793146250247 88.06516182424032 76.202105248702281 20.90477172622855 10.028254538514416 82.630228798189549 19.014966993117721 18.860241819687957 87.268666758005722 18.710341766098416 49.956565629269285 86.292025792277883 20.774368816934029 67.629897312528058 85.654192743205925 20.02306177534577 81.096496942499201 85.107332396873716 20.835625742063485 87.707504685892104 85.871112274735324 20.756157060716557 35.901941194738782 7.7408057832837978 19.255394703593765 74.618115052436707 6.511354394002427 17.825234752805706 81.012863323322705 4.9089382465751363 22.197651384874966 8.5543722865976601 17.642828936380912 22.383493778170433 31.372377927762596 17.602176745751979 18.982045657323521 57.564148159754438 15.765286060959594 20.875230271454615 78.290833375621645 18.444481228371615 18.267364694983254 92.405861517527569 17.222408004840617 20.406546137552159 31.400470283097338 23.846610173909468 23.026465404069416 68.628899586318951 24.322449820273345 18.821081435665239 91.604728299593162 23.550965389169612 19.879199576189095 9.6685420109917555 35.868599306230706 22.078251776097325 16.703127292565942 34.847784911004368 17.253883605060491 34.805084935184858 37.082225318063024 20.703611879292328 52.664437668270089 37.959815871894989 19.898856213906093 63.437324988823704 35.540507576645069 23.719899596312867 66.37633150796087 36.447654141065605 20.09559796770186 9.7422444617638817 47.759684463268876 20.26378887066009 17.824549435736241 42.909598976150313 22.787547697607685 26.578415499570514 47.264756365740176 19.728893955935145 39.209661296279542 45.739028912264324 17.023751564644112 50.966200035771763 49.447338075959273 23.351204531667474 84.53319732209215 43.604092577920227 18.380966823661289 8.4215565233741518 52.997627881307146 19.95092716335159 32.671574394146496 55.765112878592056 15.748377122188698 89.796989571087281 57.074024794126842 18.394308923503957 29.170831588830975 67.579556650002999 23.863503483967204 59.05300352861353 67.115238729132244 22.529149881680993 83.486613122646588 62.49982711290528 17.357126007691214 12.669671361950034 74.642861310678242 21.957154441496698 19.150775530439727 72.495979569351221 21.124460228930019 31.997132161450885 75.415950428502313 22.738074190989231 48.003533879385188 70.795108929969103 22.102771860979701 59.311194952169352 72.042626198329415 21.350430965692411 92.082672380486954 77.685660810826775 18.314916134929522 49.205399744505833 88.917334444993045 19.310689636450405 9.9335294622423085 6.4497142100694687 21.890607430486934 40.61321341759276 3.4581883364677357 21.29913592541952 66.53298689670163 4.3222316585368956 19.14781729096493 80.115123254647386 7.2768650835035409 16.881664838563331 9.5643926949638853 16.032953910172093 20.512967306536311 32.092351941076089 12.674658738256603 20.96236043638968 61.149206318366389 11.417364946422012 20.362834753469173 79.587849512523846 15.440414935941192 17.217856887688836 87.279562458016144 17.017221671351663 21.474414346312876 29.457724433002863 24.089189832705493 20.20266005007224 38.115423553648412 28.718622462457471 20.874904965203893 50.868634244367001 26.07652573246634 19.762346869168177 74.125341333351145 26.271616012320088 20.508512395524946 89.894781403195992 27.812665095102989 20.876723506503541 10.797611790467469 37.402736772823602 20.177691553613549 19.324043208785262 36.717329442419668 21.840338229204903 28.192297376376818 35.264977668026937 22.328247661455343 47.779582859367324 33.965768477160289 19.494362695067938 58.686876935397422 38.138042525929031 21.171317300534788 72.760404866707091 36.669049125017231 20.860708650266556 77.090121439777306 37.415044472119938 18.695589583476842 91.257804993463822 36.863064523122297 20.154865460216598 10.088405966082879 45.198255972636204 20.504369097351976 21.38178304301476 45.750390153152161 17.744793765790433 33.363321986424531 42.907468730043981 19.127823374002332 39.963584532465646 46.253304172567468 21.022266217097151 52.253502443591046 46.259503463999671 18.666203297140093 58.970202961781041 45.381729610665985 19.344727096557659 71.017588186817065 47.487355151671601 18.740780942633034 80.300850388984387 49.590510250843117 20.990761510290628 91.699852867431687 43.661143652520259 19.945956512245978 11.883373738097967 55.220936802002264 21.464282232965267 19.661781789722131 55.695077559538596 20.237159030841298 31.812751623922406 53.848158697127921 20.343606300052564 59.930380352470927 54.304281007035449 17.602015110699806 89.961751540985418 59.731706590396669 22.037424823975076 30.34951111054967 62.086694559265588 18.175179142869908 41.223137564558336 67.551857186759179 17.487934792323621 57.090119709202114 66.242817958501149 20.19694286505641 76.978662042664098 66.951058747531434 20.698690440833925 7.2686884958396618 75.765994162266722 21.355315021106101 20.393711284104072 76.741015441013374 21.471250023221131 27.897879161277736 76.139658480109503 19.798061509005308 49.774696046093716 79.825658524105577 19.971881000823856 60.100252317471828 76.225792368155993 17.819400579748887 67.387874496034343 77.480796984323874 17.861153308525086 89.935584100014609 72.964195986412136 22.158266644422309 8.9054959073343554 85.593052784317678 21.174792127808768 18.640957385215735 82.947898992876489 21.011986071905472 51.955227960754186 84.491663595954563 17.313433425946695 70.006305299767035 86.188695122303912 22.336726886704493 80.775846986814912 85.423060416448678 17.707340697228631 90.823015800571838 90.15387412785843 20.977950546201182 40.360412574738511 10.107595128187072 22.211474673401032 72.743787684312196 7.2144696452315635 18.733373639298268 76.872370853309263 3.2749516982086213 23.569996580603341 5.3262517930638946 15.228028811634935 19.815987235928404 29.113796049485227 15.074913951827536 17.008720470925887 56.424337444450018 17.422287521436278 20.001664976377182 77.333629390290881 17.435664228983036 23.078927573548615 91.340802451678357 14.363207048712779 16.620587351673493 30.749177341854171 26.142745357542331 22.864006739183672 66.616994339979357 27.679916808306153 20.746408778603946 91.854036066126582 24.876420857015638 15.298423625789018 12.814881559604077 36.489861401214213 20.747307866704503 22.112415035077973 32.896730694629305 17.28190996759022 31.03683761062619 33.329149367901657 22.03542941591736 48.505669779513916 35.694575085287923 24.265575695271014 62.445222099596222 32.49895965824917 18.624775187907115 69.626505624644324 34.602499737172508 17.978390503547743 12.290678936990242 50.129882554123121 18.946186314055105 18.572554998863463 47.558155398415039 23.539636764281809 29.639281926814437 48.215540444443974 18.014136097169153 38.0901545085921 45.7233964742152 20.606887030604135 47.73416391640756 46.432804770818841 20.675878267626331 78.902669814793839 42.247222936007304 19.503374235087836 9.044860505049213 55.322969381740634 18.15208004636305 29.172196277394669 57.768234592380225 18.183769496422983 87.655455525779558 53.476041508563469 16.770128423159221 32.77873893707693 66.658166894029321 20.465515033719839 60.589640863368771 63.161334166545082 22.894889900045015 82.815273848714128 62.996731839922006 20.460851067074579 13.07194140163471 76.561597791529962 15.744051380139672 22.244942149516536 71.045280407684544 18.658037392750451 29.708075985616638 72.382347805104089 19.174211414174053 49.361036021125599 72.804288451984775 19.275727647671285 58.142590882031541 76.623239379104589 22.032527455084601 89.230267960251638 79.283760368789402 16.708460631223261 45.470937217923463 86.07699383101621 22.055580646850341 42.275475130922615 7.2274752498873989 17.137642965382469 69.890369334800155 5.5600943932951878 22.283313238291012 13.856829007939984 12.040855569884839 17.905251226688243 29.375898374774803 17.79956536291602 20.546566649642681 60.063327814391215 17.793261867218487 19.127671631600908 83.859078017323597 16.065548383099451 22.396018875212523 30.777839952427957 24.664436035855061 17.011821582485148 5.6230858089714841 33.245347493233574 19.150983802941855 20.883880981327344 38.01301712041586 21.08818140985462 28.548712177201381 37.690818681035218 16.898572062822073 81.087108943910508 32.427397148760583 19.773531838683141 7.7135679523061329 45.755590916108837 20.53715426265126 17.732438827359477 45.380982066582312 18.134392708826592 29.384935780003595 45.305974685720642 23.716838270727106 42.526818361087336 46.243489740417395 17.494725868773454 50.161214522104025 40.946234639484388 18.57566644871196 60.779576357558071 46.710301351630271 18.755578538877291 69.84311295473718 43.764442352666883 20.327728673944986 77.840844077609361 46.147838538048781 21.617391671736048 87.922816670919318 47.136620262264771 22.297111758436387 27.37364142900514 56.316622147658009 22.777265540454465 87.885315032859552 53.754630512926724 21.304344505466052 61.688618379787052 66.236676817395306 17.69945151304071 77.900902807410375 71.253837946951791 20.253555405714909 18.755884779725307 78.506571193862627 20.28740474771093 31.454764232220931 79.070249902428827 18.728226979975918 8.7730060589881855 81.542064244624086 20.473179345106498 18.730032053389511 88.45526744717624 20.580024369151928 82.882638664420696 84.26289594719745 21.822446404448655 88.202941544811694 84.035942926158611 19.615926070644491 36.464052641285328 6.1172897380412765 20.933332127773944 82.907764290621344 6.3797234675570413 22.081941468122622 32.369033877667697 16.036737889353905 17.77387656203674 78.817251648165808 17.38485943939849 20.134226533374321 33.670158326472574 23.637081423278026 23.78735424473356 68.61956400517677 22.237891467335931 19.580709675144391 90.070450355097236 22.768746608714729 21.552929720358108 16.878670890787543 35.140664504317208 19.43217477057301 34.22890613703143 35.051171380661877 21.384345534341943 51.506410352018584 37.391844274633307 21.688661572177832 61.622556490946423 35.131084291000391 22.53661267328939 17.573489587611345 40.731276770207224 22.444336312489281 38.837867729451268 46.562235773105421 14.798589180706202 48.869576175844308 50.083089594604083 22.367722948979367 83.8807359988743 41.981093860939609 20.026389873623543 6.827890864632959 52.538222793824517 21.687712803753733 34.4516733122422 57.369839208544427 15.90118050799896 27.621334896271666 65.77315817782646 23.542205823799808 81.301641887216505 61.630185256958093 17.843820336496183 11.733580928497837 74.269138706790173 19.777403597316248 17.23925423229538 73.85318139999589 21.645360550103149 29.720975175495823 75.643055787590754 23.469360836651692 49.432220011108953 72.114238664099389 23.174318237988345 48.47