<?xml version="1.0" ?>
<VTKFile byte_order="LittleEndian" type="UnstructuredGrid" version="0.1">
<UnstructuredGrid>
<Piece NumberOfCells="0" NumberOfPoints="34">
<Points>
<DataArray NumberOfComponents="3" format="ascii" type="Float32">1.8717385109347988 1.9512473708721663 2.0 4.9680609284468087 1.97239036899864 2.0 7.1190853662649189 1 2.0 9.7346241795905541 1.9499650799838784 2.0 13.277317781711892 1.9497345175425633 2.0 16.0 1 2.0 19.0 1.9497345175425633 2.0 22.0 1 2.0 25.0 1.9497345175425633 2.0 28.0 1 2.0 31.0 1 2.0 34.0 1 2.0 37.0 1.9497345175425633 2.0 40.0 1 2.0 43.0 1 2.0 46.0 1 2.0 49.0 1.9497345175425633 2.0 52.0 1 2.0 55.0 1 2.0 57.572434389384242 1.9506049124494202 2.0 60.876266006778202 1.9511476399530761 2.0 64.01050655652692 1.9511659991427526 2.0 67.143535701820966 1.9506367451555611 2.0 70.445194554074916 1.9497345175425633 2.0 73.0 1 2.0 75.73462417959054 1.9499650799838784 2.0 79.277317781711886 1.9497345175425633 2.0 82.0 1 2.0 85.0 1 2.0 87.563658898835811 1.9506675781441829 2.0 90.837362680278119 1.951423560874284 2.0 93.874751885270612 1.951855626785834 2.0 96.820810862412259 1.9513832811422582 2.0 99.940040603686015 1.9497345175425633 2.0 </DataArray>
</Points>
<Cells>
<DataArray Name="connectivity" format="ascii" type="Int32">0</DataArray>
<DataArray Name="offsets" format="ascii" type="Int32">0</DataArray>
<DataArray Name="types" format="ascii" type="UInt8">1</DataArray>
</Cells>
<PointData>
<DataArray Name="Points" NumberOfComponents="3" format="ascii" type="Float32">1.8717385109347988 1.9512473708721663 2.0 4.9680609284468087 1.97239036899864 2.0 7.1190853662649189 1 2.0 9.7346241795905541 1.9499650799838784 2.0 13.277317781711892 1.9497345175425633 2.0 16.0 1 2.0 19.0 1.9497345175425633 2.0 22.0 1 2.0 25.0 1.9497345175425633 2.0 28.0 1 2.0 31.0 1 2.0 34.0 1 2.0 37.0 1.9497345175425633 2.0 40.0 1 2.0 43.0 1 2.0 46.0 1 2.0 49.0 1.9497345175425633 2.0 52.0 1 2.0 55.0 1 2.0 57.572434389384242 1.9506049124494202 2.0 60.876266006778202 1.9511476399530761 2.0 64.01050655652692 1.9511659991427526 2.0 67.143535701820966 1.9506367451555611 2.0 70.445194554074916 1.9497345175425633 2.0 73.0 1 2.0 75.73462417959054 1.9499650799838784 2.0 79.277317781711886 1.9497345175425633 2.0 82.0 1 2.0 85.0 1 2.0 87.563658898835811 1.9506675781441829 2.0 90.837362680278119 1.951423560874284 2.0 93.874751885270612 1.951855626785834 2.0 96.820810862412259 1.9513832811422582 2.0 99.940040603686015 1.9497345175425633 2.0 </DataArray>
<DataArray Name="forces" NumberOfComponents="3" format="ascii" type="Float32">-0.71059364877176912 0.008381502315106969 0.0 0.43714893381895026 0.12551783290166585 0.0 0.27369511147246328 -0.12551783290166585 0.0 -0.089207879630207806 0.0012773608636378053 0.0 0.089576879749472926 0.0 0.0 0.0 0.0 0.0 0.0 0.0 0.0 0.0 0.0 0.0 0.0 0.0 0.0 0.0 0.0 0.0 0.0 0.0 0.0 0.0 0.0 0.0 0.0 0.0 0.0 0.0 0.0 0.0 0.0 0.0 0.0 0.0 0.0 0.0 0.0 0.0 0.0 0.0 0.0 0.0 0.0 0.0 0.0 -0.32275508003876158 0.0048221574320064849 0.0 -0.17323392081841521 0.0078289735848680701 0.0 -0.0010504897794844648 0.0079306870740515675 0.0 0.17277115806375776 0.0049985168285148086 0.0 0.32599854840663633 0.0 0.0 0.0 0.0 0.0 -0.089207879630198925 0.0012773608636376748 0.0 0.089576879749464045 0.0 0.0 0.0 0.0 0.0 0.0 0.0 0.0 -0.34510015241674141 0.0051693375951144833 0.0 -0.23868549815298423 0.0093576292679014381 0.0 -0.11657725360692361 0.011751358631530134 0.0 0.1482044675913049 0.0091344717015855257 0.0 0.55401949092493519 0.0 0.0 </DataArray>
<DataArray Name="radii" format="ascii" type="Float32">2 2 1 2 2 1 2 1 2 1 1 1 2 1 1 1 2 1 1 2 2 2 2 2 1 2 2 1 1 2 2 2 2 2 </DataArray>
</PointData>
<CellData/>
</Piece>
</UnstructuredGrid>
</VTKFile>
