<?xml version="1.0" ?>
<VTKFile byte_order="LittleEndian" type="UnstructuredGrid" version="0.1">
<UnstructuredGrid>
<Piece NumberOfCells="0" NumberOfPoints="296">
<Points>
<DataArray NumberOfComponents="3" format="ascii" type="Float32">1.4455850744175007 1.971294839089361 2.0 5.3679330892446018 1.8930611712398717 2.0 6.926521435315844 1 2.0 7.3649696515135519 2.1489622073582044 2.0 13.544767549028666 2.1447493552180159 2.0 16.129014398818565 1 2.0 17.993942259554903 2.0954630686873505 2.0 22.031083281782113 1 2.0 22.673849464520192 2.2391654417274585 2.0 29.020091049809384 1 2.0 31.052952684141431 1 2.0 33.684896919606992 1 2.0 39.471480658665591 1.9799319165717886 2.0 40.566806366987343 1 2.0 43.0 1 2.0 45.684669571030646 1 2.0 46.87707287009912 1.9794487445850335 2.0 52.217480656697845 1 2.0 53.945276818215881 1 2.0 56.264790552731149 1.4974256880925609 2.0 58.645909190236821 1.8495413301845161 2.0 63.601580057884306 2.1123326554048028 2.0 69.601476280552689 1.86375948964619 2.0 70.447078705422172 2.0745912943687874 2.0 73.200154956881065 1 2.0 76.395820149292547 2.2352148829810305 2.0 78.332672982968973 2.1195175960596835 2.0 82.419078904971087 1 2.0 83.50608637685265 1 2.0 85.43825158093648 2.1066517565715022 2.0 89.639174897068557 1.9260951742920434 2.0 94.856049575289148 3.6448151868890037 2.0 95.709055479717236 3.0941777052930561 2.0 104.43463452201759 1.7365999715329796 2.0 3.2177686902530205 6.2858297304515443 2.0 4.5516779279073356 1 2.0 12.165071143497665 2.4714800447440086 2.0 15.7766701665751 2.6921246293990881 2.0 16.897719492614051 2.3885316943882957 2.0 30.030223416358375 2.0273739482967503 2.0 35.411056366723216 1.0114498618138206 2.0 50.666449354043216 1 2.0 57.70523922036228 4.0086218960989362 2.0 61.591614144268689 1.7489102127647813 2.0 63.25930849156606 5.0620377201758409 2.0 66.399326569861543 1.7683032719208132 2.0 72.214522104550866 1 2.0 76.686033114001503 3.9947565995188565 2.0 81.366828621267018 1 2.0 87.942835589283462 3.5777367807881069 2.0 91.121424988887838 2.0534382678862331 2.0 94.372760821343249 1 2.0 97.74604166326607 1.4224723898299902 2.0 100.24058399873334 1.8938584379779755 2.0 4.0169657957179048 1.3801921831054467 2.0 5.5717376713769493 1 2.0 7.6470763805161743 4.3436169335016963 2.0 14.306588505183782 1 2.0 21.431044797518705 1.9949586688929379 2.0 23.534236546005801 3.6842434423175998 2.0 35.602284227671852 2.7541016941380163 2.0 49.032541034433258 3.6982516255765256 2.0 56.184825847932409 4.2795731241441839 2.0 60.25889984456407 4.1447121165224177 2.0 64.180338523465068 1.6552733310872902 2.0 68.19171271885557 4.8694546515412158 2.0 72.198475462001952 2.0229643447252972 2.0 74.120311045961088 1 2.0 79.831714716237641 2.0469595674889702 2.0 86.539089416362486 2.6760933123781721 2.0 88.071158145540437 2.3906001502001191 2.0 93.743990514748063 4.9284289658771607 2.0 95.89416063576202 1 2.0 102.15728611391324 3.5474479277708491 2.0 1.7946898029006633 3.1501484306655265 2.0 9.7271873736765784 1.4971766717004751 2.0 26.908762898368131 1.2138349708952543 2.0 61.957256709905167 4.3354630500176352 2.0 68.105142150121679 1.0104498546518803 2.0 94.271663724682227 2.1373277864984153 2.0 97.159091774354891 1 2.0 100.52273280517358 1 2.0 0.8701492378365181 2.6404885806236722 2.0 6.4156595148804643 3.5943970931176028 2.0 8.5866662853916065 1.8571747599648574 2.0 14.603240924110818 3.2810855294367784 2.0 19.363419311976692 4.310458463535908 2.0 24.236973592198744 2.1870951284520315 2.0 37.109482460529719 1.9672391361579999 2.0 49.1797035594305 1 2.0 54.355741096639868 1.9509341122331287 2.0 57.887114123692839 1.9529607655907393 2.0 63.456531706218229 3.8501449052504904 2.0 68.908725030646295 3.2396439712120739 2.0 71.071524619856703 4.1014996228283245 2.0 74.576773289068498 1.9167748544413605 2.0 79.001018351838894 1 2.0 83.27411034632199 2.5324018520653153 2.0 89.096010855633565 3.704927826673174 2.0 95.179535518362371 1 2.0 96.20388415679929 4.7611694775762361 2.0 101.9300172097193 1 2.0 1.9951745668810394 4.0823057470143285 2.0 11.245872878129115 1.8002681213447242 2.0 27.723206514566773 4.5120701266418246 2.0 62.297677279889243 1.9999885329421829 2.0 64.878365146767962 4.7933819762582779 2.0 92.482028007464038 1.6373076102374444 2.0 99.269001126421784 4.1631720442911728 2.0 99.448210062834477 1.89785490139066 2.0 4.5827225067289188 3.677798994367822 2.0 19.602087180166738 1.3619732765574231 2.0 26.252474240737914 3.8708605126800841 2.0 59.944508188459423 2.2307081840411551 2.0 64.570472674575029 1 2.0 73.269655435772435 2.3614906378737435 2.0 79.19225053086187 3.5728883066028989 2.0 86.78594811244551 1 2.0 88.908264919618262 2.2162655747561337 2.0 3.5570077777178941 3.894348529377734 2.0 10.105789017836571 3.3351455138889574 2.0 25.790992506032609 1.7605565236129934 2.0 67.844750763949975 2.0704028994591965 2.0 92.365711315113586 4.5598105503974358 2.0 2.6289298663453406 1.2193419634375655 2.0 6.1546146383938005 2.5055547481445566 2.0 7.9236155248416633 1 2.0 13.962968400609711 2.6762709955367057 2.0 18.691126776149119 1 2.0 22.313148070736357 2.9294107392825843 2.0 38.675792178368482 3.2329568045490422 2.0 48.189627578907057 2.5445126110709726 2.0 55.495713424970084 1.2337675015981384 2.0 58.994969984528879 4.06466837637831 2.0 62.950088247158654 1 2.0 68.711630600338793 1.794971268143611 2.0 69.977163866188434 1 2.0 76.010091248530003 1 2.0 77.751084754656333 3.08104941915497 2.0 85.318740741768949 3.5698050990168304 2.0 89.958702756931828 3.4109394673852393 2.0 95.084233600726449 2.3106165416836433 2.0 96.41041729911403 1.5660445334635777 2.0 103.24795411581023 1.7620060060374088 2.0 1.9895601358567929 5.0602729577651484 2.0 12.409399915116822 1 2.0 27.878271218188885 1.2384674091444623 2.0 60.787482074340105 2.1289233945647008 2.0 65.49866599308281 1 2.0 91.317842948788623 3.4160474872352911 2.0 98.135479938059774 2.8348065446034019 2.0 100.68101085450684 3.5906054350950427 2.0 3.2944442341228828 1 2.0 21.371318042883509 3.5366686671765004 2.0 22.343744879374867 4.4949577717112268 2.0 59.334557100961938 1.7459890194660224 2.0 65.841380964648366 1.515555404386371 2.0 71.326411117067039 1.8128387411555742 2.0 80.793699024814629 3.0062085936806056 2.0 86.703087577009057 1.77709246959542 2.0 88.365598359950468 1 2.0 0.88881221425863688 1.0158343101402316 2.0 10.456036585623215 1.8172006730465637 2.0 27.221277531527438 2.7093827554068621 2.0 67.024648914491593 1.3695536862218682 2.0 93.479832343605423 2.1296449081976694 2.0 7.7946930842280961 2.7677149776308587 2.0 15.119452902748256 1.3236984560735368 2.0 20.385813194854979 1.6771915244922904 2.0 23.847240360997041 1 2.0 37.145188422893057 3.2262348493035096 2.0 55.758328500369565 2.9090806451870606 2.0 57.112841624269471 1.9611966479766207 2.0 64.406238050914155 3.3211325756891332 2.0 69.798222108195503 3.7555698519394753 2.0 72.863643914335285 3.7844784753064822 2.0 75.61500845832667 2.9801144875628842 2.0 84.569858277430896 1 2.0 90.271734022411863 4.8911904404299902 2.0 97.97082033711601 4.2104361822447247 2.0 4.3404715574284927 5.0542308307326049 2.0 11.004825661882 3.2825862416849687 2.0 62.344969555460331 3.5293540686232978 2.0 66.532981212252437 4.8202301727868573 2.0 91.810294678638698 1.3199318723927116 2.0 98.456077438538955 1.7380937160971337 2.0 18.877784098558774 2.5406130982774435 2.0 24.783638408746107 5.0941031324523331 2.0 60.90998647674553 3.2743583973809125 2.0 90.304140206132146 2.5475160397365579 2.0 8.9852849504936412 5.0078483755553194 2.0 25.195577276976646 2.4581101657606186 2.0 66.595986924566745 3.6035945209647635 2.0 93.060790862818649 3.4474263376418421 2.0 1.9373784291162155 1 2.0 4.4098395969877817 2.3378329541727978 2.0 6.482033715947634 1.5725330818055392 2.0 13.338673235982666 1 2.0 17.329032521871884 1 2.0 22.842992243664085 1 2.0 38.525417351855616 1.1642928394493075 2.0 47.752898011217439 1 2.0 57.282956456214407 1 2.0 58.398518045502243 2.9554446490998938 2.0 63.009284918556318 2.9954767671026707 2.0 69.484564898695382 2.7016640341043705 2.0 70.817911248975719 3.0467368238115689 2.0 77.068125394812284 1.3712612834246818 2.0 77.715602102218867 1 2.0 85.65767712169071 1 2.0 90.438321944239036 1 2.0 93.99938602565301 3.6216683500813436 2.0 97.207896640652095 2.9310413093059626 2.0 103.0928670908574 2.8629629631795357 2.0 1.8696694758227206 6.5459960737258189 2.0 11.994512401273274 3.3743693733397393 2.0 29.342407763709261 2.8788167495910986 2.0 62.217781151880352 1 2.0 67.173598175930678 1 2.0 90.989173105291187 1 2.0 96.498546450682454 2.3443338873163211 2.0 101.25096025307577 1.4121759283311999 2.0 5.1093105161711447 3.0519247507308536 2.0 21.006240419248613 1 2.0 24.567480507081502 3.2291442807292481 2.0 60.993951970128435 4.9900572464699549 2.0 63.682494292309791 1 2.0 70.95628891033607 1 2.0 80.43058682186907 1 2.0 86.960810916744634 3.5069538984480624 2.0 87.718378434761021 1.2513862618620362 2.0 0.8798869030353853 3.834350227908677 2.0 8.9989969221912318 1 2.0 26.377280993699756 2.6780532981845528 2.0 68.128863261844842 3.2452218049485291 2.0 93.568534801404738 1 2.0 9.4232046108478897 2.5902314027197582 2.0 15.095355240026876 4.3563033903898418 2.0 17.936779744360987 3.7848133354579043 2.0 23.477125243139412 1.966694851517403 2.0 37.075133745043765 1 2.0 53.00799085491802 2.2339888574212168 2.0 58.670999697152688 1 2.0 64.550191013764746 4.0604031054616971 2.0 68.761304368638136 4.3327219652780009 2.0 70.063438327058961 4.8903391185068665 2.0 75.127731485281174 1 2.0 84.435798357565602 2.2882643870523425 2.0 88.132514109917722 4.8069263376255291 2.0 96.695042918842717 3.8643470704024896 2.0 3.0200854375589241 4.8979198496359606 2.0 12.420247566712549 1.7271163294352401 2.0 61.382499240517696 1 2.0 65.723917481547218 5.1936852836667748 2.0 92.676094418860657 1 2.0 99.365494427115806 3.0288852871371295 2.0 19.657444165765813 3.091493092314312 2.0 25.193030766746375 4.0796442274967033 2.0 60.545429207183943 1 2.0 89.393364567751874 1 2.0 9.907457651443087 4.2187797701000642 2.0 25.700023448696665 1 2.0 66.841539581238649 2.6576270893807266 2.0 91.207460166848989 4.2778110166738204 2.0 3.5014579272647102 2.4079372779017287 2.0 54.75763489506528 3.0593929095967116 2.0 68.898350918456927 1 2.0 102.6620910879646 1.1601121434545258 2.0 0.91147087719621622 5.3070271721875484 2.0 28.41635669071276 2.3630648179973912 2.0 59.936414583051807 1 2.0 65.518246860772322 2.6358195340634945 2.0 101.11048670848831 2.6113674511556533 2.0 3.0043411740652859 3.1932868229501428 2.0 59.6893795697437 3.1351305391024886 2.0 64.654715000345405 2.6966527216201275 2.0 72.049849073144784 3.0019220631195571 2.0 2.5075205087566617 2.4692249809490798 2.0 11.002187643984197 1 2.0 28.035481473839234 3.415036771706248 2.0 67.533115651276418 3.0412238358723802 2.0 92.706345908243833 2.7101877007839903 2.0 8.5650250997865101 3.4478099190135469 2.0 20.56236431202597 3.0622853906197753 2.0 56.877575397082659 2.9965910138865133 2.0 64.941616126169862 1.8226286531352687 2.0 71.975577730819353 4.7954287467662935 2.0 74.405557307069742 2.9044548172738183 2.0 63.035708854300431 2.2648545778062767 2.0 67.327369614480205 4.7507773886893769 2.0 91.751900816665511 2.8199787692420171 2.0 99.056526677547723 1 2.0 61.50630477104103 2.7910134357556768 2.0 10.709218406251326 5.1534791039492935 2.0 24.672667045239326 1 2.0 65.87893741843358 3.4449922788169069 2.0 </DataArray>
</Points>
<Cells>
<DataArray Name="connectivity" format="ascii" type="Int32">0</DataArray>
<DataArray Name="offsets" format="ascii" type="Int32">0</DataArray>
<DataArray Name="types" format="ascii" type="UInt8">1</DataArray>
</Cells>
<PointData>
<DataArray Name="Points" NumberOfComponents="3" format="ascii" type="Float32">1.4455850744175007 1.971294839089361 2.0 5.3679330892446018 1.8930611712398717 2.0 6.926521435315844 1 2.0 7.3649696515135519 2.1489622073582044 2.0 13.544767549028666 2.1447493552180159 2.0 16.129014398818565 1 2.0 17.993942259554903 2.0954630686873505 2.0 22.031083281782113 1 2.0 22.673849464520192 2.2391654417274585 2.0 29.020091049809384 1 2.0 31.052952684141431 1 2.0 33.684896919606992 1 2.0 39.471480658665591 1.9799319165717886 2.0 40.566806366987343 1 2.0 43.0 1 2.0 45.684669571030646 1 2.0 46.87707287009912 1.9794487445850335 2.0 52.217480656697845 1 2.0 53.945276818215881 1 2.0 56.264790552731149 1.4974256880925609 2.0 58.645909190236821 1.8495413301845161 2.0 63.601580057884306 2.1123326554048028 2.0 69.601476280552689 1.86375948964619 2.0 70.447078705422172 2.0745912943687874 2.0 73.200154956881065 1 2.0 76.395820149292547 2.2352148829810305 2.0 78.332672982968973 2.1195175960596835 2.0 82.419078904971087 1 2.0 83.50608637685265 1 2.0 85.43825158093648 2.1066517565715022 2.0 89.639174897068557 1.9260951742920434 2.0 94.856049575289148 3.6448151868890037 2.0 95.709055479717236 3.0941777052930561 2.0 104.43463452201759 1.7365999715329796 2.0 3.2177686902530205 6.2858297304515443 2.0 4.5516779279073356 1 2.0 12.165071143497665 2.4714800447440086 2.0 15.7766701665751 2.6921246293990881 2.0 16.897719492614051 2.3885316943882957 2.0 30.030223416358375 2.0273739482967503 2.0 35.411056366723216 1.0114498618138206 2.0 50.666449354043216 1 2.0 57.70523922036228 4.0086218960989362 2.0 61.591614144268689 1.7489102127647813 2.0 63.25930849156606 5.0620377201758409 2.0 66.399326569861543 1.7683032719208132 2.0 72.214522104550866 1 2.0 76.686033114001503 3.9947565995188565 2.0 81.366828621267018 1 2.0 87.942835589283462 3.5777367807881069 2.0 91.121424988887838 2.0534382678862331 2.0 94.372760821343249 1 2.0 97.74604166326607 1.4224723898299902 2.0 100.24058399873334 1.8938584379779755 2.0 4.0169657957179048 1.3801921831054467 2.0 5.5717376713769493 1 2.0 7.6470763805161743 4.3436169335016963 2.0 14.306588505183782 1 2.0 21.431044797518705 1.9949586688929379 2.0 23.534236546005801 3.6842434423175998 2.0 35.602284227671852 2.7541016941380163 2.0 49.032541034433258 3.6982516255765256 2.0 56.184825847932409 4.2795731241441839 2.0 60.25889984456407 4.1447121165224177 2.0 64.180338523465068 1.6552733310872902 2.0 68.19171271885557 4.8694546515412158 2.0 72.198475462001952 2.0229643447252972 2.0 74.120311045961088 1 2.0 79.831714716237641 2.0469595674889702 2.0 86.539089416362486 2.6760933123781721 2.0 88.071158145540437 2.3906001502001191 2.0 93.743990514748063 4.9284289658771607 2.0 95.89416063576202 1 2.0 102.15728611391324 3.5474479277708491 2.0 1.7946898029006633 3.1501484306655265 2.0 9.7271873736765784 1.4971766717004751 2.0 26.908762898368131 1.2138349708952543 2.0 61.957256709905167 4.3354630500176352 2.0 68.105142150121679 1.0104498546518803 2.0 94.271663724682227 2.1373277864984153 2.0 97.159091774354891 1 2.0 100.52273280517358 1 2.0 0.8701492378365181 2.6404885806236722 2.0 6.4156595148804643 3.5943970931176028 2.0 8.5866662853916065 1.8571747599648574 2.0 14.603240924110818 3.2810855294367784 2.0 19.363419311976692 4.310458463535908 2.0 24.236973592198744 2.1870951284520315 2.0 37.109482460529719 1.9672391361579999 2.0 49.1797035594305 1 2.0 54.355741096639868 1.9509341122331287 2.0 57.887114123692839 1.9529607655907393 2.0 63.456531706218229 3.8501449052504904 2.0 68.908725030646295 3.2396439712120739 2.0 71.071524619856703 4.1014996228283245 2.0 74.576773289068498 1.9167748544413605 2.0 79.001018351838894 1 2.0 83.27411034632199 2.5324018520653153 2.0 89.096010855633565 3.704927826673174 2.0 95.179535518362371 1 2.0 96.20388415679929 4.7611694775762361 2.0 101.9300172097193 1 2.0 1.9951745668810394 4.0823057470143285 2.0 11.245872878129115 1.8002681213447242 2.0 27.723206514566773 4.5120701266418246 2.0 62.297677279889243 1.9999885329421829 2.0 64.878365146767962 4.7933819762582779 2.0 92.482028007464038 1.6373076102374444 2.0 99.269001126421784 4.1631720442911728 2.0 99.448210062834477 1.89785490139066 2.0 4.5827225067289188 3.677798994367822 2.0 19.602087180166738 1.3619732765574231 2.0 26.252474240737914 3.8708605126800841 2.0 59.944508188459423 2.2307081840411551 2.0 64.570472674575029 1 2.0 73.269655435772435 2.3614906378737435 2.0 79.19225053086187 3.5728883066028989 2.0 86.78594811244551 1 2.0 88.908264919618262 2.2162655747561337 2.0 3.5570077777178941 3.894348529377734 2.0 10.105789017836571 3.3351455138889574 2.0 25.790992506032609 1.7605565236129934 2.0 67.844750763949975 2.0704028994591965 2.0 92.365711315113586 4.5598105503974358 2.0 2.6289298663453406 1.2193419634375655 2.0 6.1546146383938005 2.5055547481445566 2.0 7.9236155248416633 1 2.0 13.962968400609711 2.6762709955367057 2.0 18.691126776149119 1 2.0 22.313148070736357 2.9294107392825843 2.0 38.675792178368482 3.2329568045490422 2.0 48.189627578907057 2.5445126110709726 2.0 55.495713424970084 1.2337675015981384 2.0 58.994969984528879 4.06466837637831 2.0 62.950088247158654 1 2.0 68.711630600338793 1.794971268143611 2.0 69.977163866188434 1 2.0 76.010091248530003 1 2.0 77.751084754656333 3.08104941915497 2.0 85.318740741768949 3.5698050990168304 2.0 89.958702756931828 3.4109394673852393 2.0 95.084233600726449 2.3106165416836433 2.0 96.41041729911403 1.5660445334635777 2.0 103.24795411581023 1.7620060060374088 2.0 1.9895601358567929 5.0602729577651484 2.0 12.409399915116822 1 2.0 27.878271218188885 1.2384674091444623 2.0 60.787482074340105 2.1289233945647008 2.0 65.49866599308281 1 2.0 91.317842948788623 3.4160474872352911 2.0 98.135479938059774 2.8348065446034019 2.0 100.68101085450684 3.5906054350950427 2.0 3.2944442341228828 1 2.0 21.371318042883509 3.5366686671765004 2.0 22.343744879374867 4.4949577717112268 2.0 59.334557100961938 1.7459890194660224 2.0 65.841380964648366 1.515555404386371 2.0 71.326411117067039 1.8128387411555742 2.0 80.793699024814629 3.0062085936806056 2.0 86.703087577009057 1.77709246959542 2.0 88.365598359950468 1 2.0 0.88881221425863688 1.0158343101402316 2.0 10.456036585623215 1.8172006730465637 2.0 27.221277531527438 2.7093827554068621 2.0 67.024648914491593 1.3695536862218682 2.0 93.479832343605423 2.1296449081976694 2.0 7.7946930842280961 2.7677149776308587 2.0 15.119452902748256 1.3236984560735368 2.0 20.385813194854979 1.6771915244922904 2.0 23.847240360997041 1 2.0 37.145188422893057 3.2262348493035096 2.0 55.758328500369565 2.9090806451870606 2.0 57.112841624269471 1.9611966479766207 2.0 64.406238050914155 3.3211325756891332 2.0 69.798222108195503 3.7555698519394753 2.0 72.863643914335285 3.7844784753064822 2.0 75.61500845832667 2.9801144875628842 2.0 84.569858277430896 1 2.0 90.271734022411863 4.8911904404299902 2.0 97.97082033711601 4.2104361822447247 2.0 4.3404715574284927 5.0542308307326049 2.0 11.004825661882 3.2825862416849687 2.0 62.344969555460331 3.5293540686232978 2.0 66.532981212252437 4.8202301727868573 2.0 91.810294678638698 1.3199318723927116 2.0 98.456077438538955 1.7380937160971337 2.0 18.877784098558774 2.5406130982774435 2.0 24.783638408746107 5.0941031324523331 2.0 60.90998647674553 3.2743583973809125 2.0 90.304140206132146 2.5475160397365579 2.0 8.9852849504936412 5.0078483755553194 2.0 25.195577276976646 2.4581101657606186 2.0 66.595986924566745 3.6035945209647635 2.0 93.060790862818649 3.4474263376418421 2.0 1.9373784291162155 1 2.0 4.4098395969877817 2.3378329541727978 2.0 6.482033715947634 1.5725330818055392 2.0 13.338673235982666 1 2.0 17.329032521871884 1 2.0 22.842992243664085 1 2.0 38.525417351855616 1.1642928394493075 2.0 47.752898011217439 1 2.0 57.282956456214407 1 2.0 58.398518045502243 2.9554446490998938 2.0 63.009284918556318 2.9954767671026707 2.0 69.484564898695382 2.7016640341043705 2.0 70.817911248975719 3.0467368238115689 2.0 77.068125394812284 1.3712612834246818 2.0 77.715602102218867 1 2.0 85.65767712169071 1 2.0 90.438321944239036 1 2.0 93.99938602565301 3.6216683500813436 2.0 97.207896640652095 2.9310413093059626 2.0 103.0928670908574 2.8629629631795357 2.0 1.8696694758227206 6.5459960737258189 2.0 11.994512401273274 3.3743693733397393 2.0 29.342407763709261 2.8788167495910986 2.0 62.217781151880352 1 2.0 67.173598175930678 1 2.0 90.989173105291187 1 2.0 96.498546450682454 2.3443338873163211 2.0 101.25096025307577 1.4121759283311999 2.0 5.1093105161711447 3.0519247507308536 2.0 21.006240419248613 1 2.0 24.567480507081502 3.2291442807292481 2.0 60.993951970128435 4.9900572464699549 2.0 63.682494292309791 1 2.0 70.95628891033607 1 2.0 80.43058682186907 1 2.0 86.960810916744634 3.5069538984480624 2.0 87.718378434761021 1.2513862618620362 2.0 0.8798869030353853 3.834350227908677 2.0 8.9989969221912318 1 2.0 26.377280993699756 2.6780532981845528 2.0 68.128863261844842 3.2452218049485291 2.0 93.568534801404738 1 2.0 9.4232046108478897 2.5902314027197582 2.0 15.095355240026876 4.3563033903898418 2.0 17.936779744360987 3.7848133354579043 2.0 23.477125243139412 1.966694851517403 2.0 37.075133745043765 1 2.0 53.00799085491802 2.2339888574212168 2.0 58.670999697152688 1 2.0 64.550191013764746 4.0604031054616971 2.0 68.761304368638136 4.3327219652780009 2.0 70.063438327058961 4.8903391185068665 2.0 75.127731485281174 1 2.0 84.435798357565602 2.2882643870523425 2.0 88.132514109917722 4.8069263376255291 2.0 96.695042918842717 3.8643470704024896 2.0 3.0200854375589241 4.8979198496359606 2.0 12.420247566712549 1.7271163294352401 2.0 61.382499240517696 1 2.0 65.723917481547218 5.1936852836667748 2.0 92.676094418860657 1 2.0 99.365494427115806 3.0288852871371295 2.0 19.657444165765813 3.091493092314312 2.0 25.193030766746375 4.0796442274967033 2.0 60.545429207183943 1 2.0 89.393364567751874 1 2.0 9.907457651443087 4.2187797701000642 2.0 25.700023448696665 1 2.0 66.841539581238649 2.6576270893807266 2.0 91.207460166848989 4.2778110166738204 2.0 3.5014579272647102 2.4079372779017287 2.0 54.75763489506528 3.0593929095967116 2.0 68.898350918456927 1 2.0 102.6620910879646 1.1601121434545258 2.0 0.91147087719621622 5.3070271721875484 2.0 28.41635669071276 2.3630648179973912 2.0 59.936414583051807 1 2.0 65.518246860772322 2.6358195340634945 2.0 101.11048670848831 2.6113674511556533 2.0 3.0043411740652859 3.1932868229501428 2.0 59.6893795697437 3.1351305391024886 2.0 64.654715000345405 2.6966527216201275 2.0 72.049849073144784 3.0019220631195571 2.0 2.5075205087566617 2.4692249809490798 2.0 11.002187643984197 1 2.0 28.035481473839234 3.415036771706248 2.0 67.533115651276418 3.0412238358723802 2.0 92.706345908243833 2.7101877007839903 2.0 8.5650250997865101 3.4478099190135469 2.0 20.56236431202597 3.0622853906197753 2.0 56.877575397082659 2.9965910138865133 2.0 64.941616126169862 1.8226286531352687 2.0 71.975577730819353 4.7954287467662935 2.0 74.405557307069742 2.9044548172738183 2.0 63.035708854300431 2.2648545778062767 2.0 67.327369614480205 4.7507773886893769 2.0 91.751900816665511 2.8199787692420171 2.0 99.056526677547723 1 2.0 61.50630477104103 2.7910134357556768 2.0 10.709218406251326 5.1534791039492935 2.0 24.672667045239326 1 2.0 65.87893741843358 3.4449922788169069 2.0 </DataArray>