<?xml version="1.0" ?>
<VTKFile byte_order="LittleEndian" type="UnstructuredGrid" version="0.1">
<UnstructuredGrid>
<Piece NumberOfCells="0" NumberOfPoints="15">
<Points>
<DataArray NumberOfComponents="3" format="ascii" type="Float32">1.0 1.0 1.0 2.0 1.0 1.0 5.0 1.0 1.0 8.0 1.0 1.0 1.0 1.0 3.0 4.0 1.0 3.0 7.0 1.0 3.0 9.0 1.0 4.0 2.0 1.0 5.0 5.0 1.0 5.0 7.0 1.0 6.0 1.0 1.0 7.0 4.0 1.0 7.0 9.0 1.0 7.0 6.0 1.0 8.0 </DataArray>
</Points>
<Cells>
<DataArray Name="connectivity" format="ascii" type="Int32">0</DataArray>
<DataArray Name="offsets" format="ascii" type="Int32">0</DataArray>
<DataArray Name="types" format="ascii" type="UInt8">1</DataArray>
</Cells>
<PointData>
<DataArray Name="Points" NumberOfComponents="3" format="ascii" type="Float32">1.0 1.0 1.0 2.0 1.0 1.0 5.0 1.0 1.0 8.0 1.0 1.0 1.0 1.0 3.0 4.0 1.0 3.0 7.0 1.0 3.0 9.0 1.0 4.0 2.0 1.0 5.0 5.0 1.0 5.0 7.0 1.0 6.0 1.0 1.0 7.0 4.0 1.0 7.0 9.0 1.0 7.0 6.0 1.0 8.0 </DataArray>
<DataArray Name="forces" NumberOfComponents="3" format="ascii" type="Float32">0.0 0.0 0.0 0.0 0.0 0.0 0.0 0.0 0.0 0.0 0.0 0.0 0.0 0.0 0.0 0.0 0.0 0.0 0.0 0.0 0.0 0.0 0.0 0.0 0.0 0.0 0.0 0.0 0.0 0.0 0.0 0.0 0.0 0.0 0.0 0.0 0.0 0.0 0.0 0.0 0.0 0.0 0.0 0.0 0.0 </DataArray>
<DataArray Name="radii" format="ascii" type="Float32">1 1 1 1 1 1 1 1 1 1 1 1 1 1 1 </DataArray>
</PointData>
<CellData/>
</Piece>
</UnstructuredGrid>
</VTKFile>
