<?xml version="1.0" ?>
<VTKFile byte_order="LittleEndian" type="UnstructuredGrid" version="0.1">
<UnstructuredGrid>
<Piece NumberOfCells="0" NumberOfPoints="15">
<Points>
<DataArray NumberOfComponents="3" format="ascii" type="Float32">0.99563272154437288 1 0.98741287984466319 2.9775245025989503 1 0.93309824639822136 5.3293552576940231 1.1604589900523157 1.1624756821485671 8.052926026725304 1.1638088526306456 1.2 1.1231378807236414 1.1600080057467339 3.1732608911026285 3.7683567011951196 1.372005779788632 3.2711722313789551 6.9470739732746933 1 3.0931204917452586 9.0 1 4.0 2.0749465653801691 1 5.1780747117004919 4.8617849275719731 1 5.2069401354598996 6.9953015543084689 1.171113332358739 5.9339213566046318 1.0 1 7.0 4.0 1 7.0 8.8279797759766243 1.1638088526306456 7.3570816418027292 6.0 1 8.0 </DataArray>
</Points>
<Cells>
<DataArray Name="connectivity" format="ascii" type="Int32">0</DataArray>
<DataArray Name="offsets" format="ascii" type="Int32">0</DataArray>
<DataArray Name="types" format="ascii" type="UInt8">1</DataArray>
</Cells>
<PointData>
<DataArray Name="Points" NumberOfComponents="3" format="ascii" type="Float32">0.99563272154437288 1 0.98741287984466319 2.9775245025989503 1 0.93309824639822136 5.3293552576940231 1.1604589900523157 1.1624756821485671 8.052926026725304 1.1638088526306456 1.2 1.1231378807236414 1.1600080057467339 3.1732608911026285 3.7683567011951196 1.372005779788632 3.2711722313789551 6.9470739732746933 1 3.0931204917452586 9.0 1 4.0 2.0749465653801691 1 5.1780747117004919 4.8617849275719731 1 5.2069401354598996 6.9953015543084689 1.171113332358739 5.9339213566046318 1.0 1 7.0 4.0 1 7.0 8.8279797759766243 1.1638088526306456 7.3570816418027292 6.0 1 8.0 </DataArray>
<DataArray Name="forces" NumberOfComponents="3" format="ascii" type="Float32">-0.0052446218686515306 -0.001141771541946031 -0.015115749156082858 -0.022202862877332363 -0.013912326912967747 -0.080341659813088925 0.036467973017160281 -0.0040228171191258547 -0.045062585317014577 0.0 0.0 0.0 -0.09230296527309699 -0.0045643997490187856 0.0025687038001427492 0.07756199423934905 0.025538073924232914 0.12008901932721992 0.0 0.0 0.0 0.0 0.0 0.0 0.0034323853081684678 -0.00078716456899666676 0.0078732069445752503 -0.090135348645706395 -0.0074616989513000284 -0.030713004532331143 0.087101619376176248 0.0087718780724230401 0.029679282000550779 0.0 0.0 0.0 0.0 0.0 0.0 0.033600638580280243 0.0 0.025534999843391901 0.0 0.0 0.0 </DataArray>
<DataArray Name="radii" format="ascii" type="Float32">1 1 1.2 1.2 1.2 1.4 1 1 1 1 1.2 1 1 1.2 1 </DataArray>
</PointData>
<CellData/>
</Piece>
</UnstructuredGrid>
</VTKFile>
