<?xml version="1.0" ?>
<VTKFile byte_order="LittleEndian" type="UnstructuredGrid" version="0.1">
<UnstructuredGrid>
<Piece NumberOfCells="0" NumberOfPoints="385">
<Points>
<DataArray NumberOfComponents="3" format="ascii" type="Float32">0 0 0 30.569326865659814 13.797108355085742 2 48.144767611754069 9.3508437181357404 2 63.132271262343558 16.791231295614377 2 34.57511674636217 8.4192153770651643 2 46.516882304680536 6.1700534891316963 2 60.479743245483931 20.995818942405592 2 29.836465922253399 1 2 49.578948040753211 3.6166700538416552 2 65.861512409895951 4.4231194728706766 2 37.226266988400518 15.729284433211946 2 45.603367092595498 10.958560685201013 2 61.611468663308621 1.995955303821962 2 32.918667333106384 23.222790533520964 2 48.422558416639141 10.377732193682281 2 61.004922059771005 9.5531255684748935 2 34.522061670098068 1 2 43.434907367950849 1 2 57.323244396331958 12.899034194302434 2 29.035585488379034 9.4688529655511591 2 44.184003695761213 3.6850870997248246 2 66.825195342184969 9.5407804661570772 2 32.708841441364463 12.152367117894995 2 46.785022812024295 17.539222586435738 2 65.533217684281681 1 2 31.831306951212774 15.770757616204184 2 50.123262935593807 9.6138043407548661 2 61.376800925618362 11.816214163867867 2 33.964909678756179 5.6373754078145737 2 44.625002429780956 10.051177854756075 2 59.849199502181726 15.268224368084107 2 31.388218735206681 6.4008673047969182 2 49.495765645380359 7.0830815442385671 2 65.538803970597471 7.5234649116518577 2 39.466018563993352 22.918372854667265 2 43.952846348637379 17.157549149083227 2 60.527965934114015 4.0754754622164482 2 34.579395590214958 15.328734633025476 2 49.51246329085636 14.652245481079824 2 60.347981088774347 5.6083191937040908 2 31.153222258260016 2.9920390613895949 2 43.27587031525875 4.4224748459143903 2 56.590261579907995 13.929683721519018 2 33.641984384270408 7.3957388586004846 2 48.304742991154754 2.9159106084145909 2 63.042145741081427 7.9921105602214562 2 35.676549199509843 12.621211475361491 2 48.917581023539668 21.644020950752374 2 63.193266094758627 5.4354958811668075 2 30.661045979463761 11.829039364353388 2 46.033716363735053 8.0437852602426769 2 62.053990391421685 18.02518077973491 2 33.393574808557631 10.353137740376239 2 46.787371572973598 4.0910786631055833 2 62.901990690616699 21.429929155950038 2 29.857197651135031 4.4069655813568307 2 50.821882705596984 1 2 67.230941859768947 2.9584085822266388 2 34.749276725440808 19.870089824687909 2 47.071443296759405 12.980881116507964 2 62.350947877967421 2.5225189517097788 2 34.786850977625079 23.159867529529251 2 47.453170728980169 15.502632029899209 2 63.861058850988172 11.677427619087569 2 35.249259434939276 1.9511471789241233 2 44.840565099764078 1.8955727707704231 2 60.020750511823522 12.839957521802976 2 30.863148721771633 8.2425074195928847 2 46.144910833657057 2.8068348028572578 2 67.674244085004958 11.323869453571916 2 31.200787255127267 12.898315639643499 2 46.613583971631591 20.189705362227315 2 63.243768476037332 1 2 31.328523056281409 18.636611524264147 2 51.183200230157759 8.06152749403401 2 61.518170383585797 14.752639258826839 2 32.497445360961251 4.4117211106522838 2 44.50060215653761 11.192663404942992 2 58.831528730616213 19.818900604631736 2 29.410193174036387 5.386504427790582 2 47.336862873010773 5.5909914497875386 2 64.346212081590565 2.7553344865847746 2 38.862194693143422 18.555228373381947 2 44.723226623073344 20.050250504915439 2 58.889923037445762 1 2 33.203100886223375 19.906441861265918 2 48.570605018036972 16.371747997085457 2 61.271633829810931 6.4322561532970175 2 32.012131561302979 1 2 43.892870004148499 6.042058613043424 2 55.032701829471755 17.514926472814157 2 31.783063078780838 9.34688697352356 2 48.62176741303638 2.0698104796535342 2 64.862404434638449 8.6179429916847798 2 37.112382057126752 12.264350947308127 2 51.484058720037112 22.392671336546137 2 62.16954277068082 5.2745336237486313 2 29.016423855478436 15.051522986776044 2 48.733332598295164 7.76208654299794 2 64.281691908719679 18.848559716063054 2 34.616941839002564 9.501763419888082 2 44.62014357686666 7.1583452215727856 2 61.975477907922809 22.913975919744338 2 29.630893004683418 2.5317995653738472 2 50.353405829071313 4.287199243955242 2 65.459778131646104 3.2053554538584526 2 35.56325570502581 18.116614183980118 2 47.271951662526078 10.167671731654835 2 61.730530073750622 1 2 31.655485803687469 19.996239550456117 2 47.312510974065589 11.964375722187723 2 62.352074208148245 8.8167673505708475 2 32.921128240373527 1.8861059149323951 2 42.617727013870777 1 2 58.6032863043161 11.787560161541561 2 29.17547524856321 10.534019331963325 2 45.846215054031575 4.3893221370296986 2 67.907650896071544 8.5286937508696674 2 34.933688699358058 13.360594858559201 2 45.87048987202364 15.999207218829374 2 66.225997805682653 1 2 33.033454805817492 15.992603044292334 2 50.060732173450852 7.9129933936921901 2 61.064447368890278 12.783791640852428 2 33.160689716722707 5.6079582438547799 2 44.796808977547933 8.6438252294832338 2 56.747786372458918 15.117462161374178 2 30.808355434141603 5.3250770857803413 2 48.391229420077337 5.8318864666481067 2 63.858796208544717 7.1498208312513141 2 38.789631615176496 19.902073172807125 2 45.495632973255319 17.512205596084147 2 59.441896470879954 2.775214911572967 2 33.219878244089202 14.170290578897353 2 50.082051681362131 12.746440548629668 2 59.829608080058435 6.3512871848914783 2 32.925825381053293 3.4392170245422906 2 43.57353762228594 1.9788836365297464 2 55.648136473729316 15.15913439550377 2 31.715548984766677 8.2528299417351132 2 47.910545755276097 4.8313798419912102 2 62.125546244299713 6.3200703425725342 2 34.97435310380034 14.378129975758227 2 48.757428447533108 23.357125325800624 2 63.876713032908476 4.5103350253563095 2 29.704193179643024 13.322803147050575 2 47.352178533028585 8.7212352322377686 2 60.364743232501453 17.382782736831505 2 33.41748481109714 9.5013180840584859 2 45.272312608282064 3.4667570281382352 2 64.242291712513463 20.489501905499907 2 29.127231454645703 1 2 49.704963093437485 1.8332821140583371 2 67.713383941757144 1 2 37.303016332273721 18.515415175919866 2 45.788845528617784 14.559320782673101 2 61.989810891835852 3.4601582874146346 2 36.611173704632129 21.443729546704024 2 47.894247730899238 13.975030686653623 2 63.163523302740941 9.8635130443720662 2 36.192683890468246 1 2 45.138287370788795 1 2 59.13996406227249 13.545303589063765 2 30.229654749553841 7.0112760501593261 2 46.605307079143167 1 2 66.897584744523385 12.245577957547818 2 31.540752974984688 11.92515312264061 2 49.452388091267416 18.314264940048744 2 64.049630131075943 1 2 32.622429738927416 18.468801626647753 2 52.03606658358995 6.3078955861026849 2 60.447018505096153 16.000583550241934 2 33.454673373358787 4.6193923251130133 2 43.603045686853605 11.013600920857705 2 58.951311002430678 16.819700712884259 2 30.786650039950075 4.1406159142646306 2 47.291234685736299 6.7008255975722557 2 65.427626883568621 6.2883655098965052 2 37.519804762714344 16.73584734346888 2 46.501607967317128 22.735378766061253 2 60.373273771871062 1.7269632606551546 2 34.292555451996144 18.613966490901216 2 50.035425777424088 17.116329577209665 2 61.225278054663185 7.9059187706158651 2 31.283676459231284 1 2 43.385554683600581 7.4008649720013704 2 53.62883742011374 17.138371685992766 2 30.92048368124491 9.8978148688400793 2 48.213701587232464 1 2 63.877106834508616 9.3041663299844899 2 36.543198352508767 13.280359319213492 2 50.862965647977397 18.921753453382536 2 62.805732615368271 4.3487058002670835 2 31.772797460473114 14.712678895770976 2 49.262864666813947 9.5259543710176402 2 62.038354268816612 15.546537583585023 2 33.65443555113692 8.4666865755962899 2 44.71333297856637 6.126304771024321 2 60.191873221120417 19.501855485222226 2 30.471850535489367 2.2450906716383647 2 49.543010442875307 2.7413782190983746 2 66.796885363021204 4.7209522034558784 2 36.206847439929817 14.273703782895037 2 46.810504477231945 11.053646473048538 2 60.830669594280877 1 2 31.185514907584654 22.938035575111126 2 48.195136576562085 11.293491466251693 2 61.389869305468096 10.502265694078968 2 35.38605645297261 1 2 41.893738612871694 1 2 58.261279813558104 13.078028675984806 2 29.768494990665982 7.8208832632630196 2 44.865910594338644 4.3794091371220887 2 65.509951273573989 9.2975437940283339 2 34.267654753278947 12.389514485826901 2 47.002680835707856 18.747441202366517 2 65.457171945880532 2.1872037901063011 2 30.678994708029681 15.54421379498873 2 51.937105713178639 10.201444921087759 2 60.413728670507496 11.241635637729926 2 34.797818698310621 5.1254969170415601 2 45.842945578435561 10.089182916009735 2 58.655600262429708 14.893343823265312 2 32.765791645713371 7.0518675205483774 2 50.136387122105283 6.5276976404261173 2 66.384169420117288 7.737713583631419 2 38.165656453339928 24.395543468456243 2 42.842947892845075 17.999753954021404 2 59.660865855143399 3.8504782706028564 2 34.703693744477306 16.598402388215295 2 50.576696118640839 14.397100091889904 2 61.650311205537335 4.380830159434141 2 32.358501854505128 2.5378275027989319 2 43.34260583549267 3.1874065069038493 2 55.524692514406759 13.616241581515112 2 32.559678023747949 7.8681110514973538 2 48.720363559337791 3.9177258532733132 2 62.952689303350112 6.7579354033717376 2 36.31198304021747 11.602115857384781 2 48.363739895364247 20.124490386876502 2 63.895023900321462 5.9860744329800735 2 30.55170539785091 10.783739026551727 2 45.633801341478389 7.3354150826223394 2 61.07142549694791 18.712110032473579 2 33.344753748626637 11.33640849870199 2 47.008707544460044 3.2052212006549974 2 62.084818735125332 19.998277684422408 2 29.104965434449426 3.4550175806838026 2 49.994337736300032 1 2 66.549188207169806 3.7361686097414233 2 36.040173394685446 19.725529342990594 2 46.153803932523871 13.440868467320506 2 63.170316074205203 2.5081134694717946 2 35.138579222915467 21.41198370667005 2 48.566894213107631 15.055611105810023 2 62.257387804152913 11.425462671173001 2 36.312725374753754 2.1772854885030588 2 44.250470022613484 1 2 60.140247412147772 14.16033711003184 2 30.115957397143017 8.7785248815560859 2 46.713819038782546 2.110904494961265 2 67.04952286860798 10.550138701430676 2 32.71432745596595 13.029470261424057 2 47.178358756311965 21.410151276840857 2 64.026290832340322 2.0200133600458114 2 30.29416104351753 18.030827413551439 2 52.264494163742853 8.2728064910830508 2 61.564172649034411 13.783039550669393 2 31.976429455572553 5.4915482878788699 2 45.088613261091552 12.091663781768442 2 58.10024450606624 18.574668900919114 2 29.26019805041825 6.3802933970686802 2 46.520878461116098 5.0120177455516854 2 64.565579686958529 3.6756106526592158 2 40.259508483809626 17.729725004201153 2 45.655379329285815 19.047425497003804 2 59.017066201812213 1.8223022378925127 2 33.654557643421192 21.524439649596541 2 48.328204890782992 17.347248093008993 2 60.597113188806055 7.1201918634909092 2 32.865091832190224 1 2 45.69383973928386 6.2841374829622936 2 55.724398048589677 18.489614037810078 2 32.305134222330587 11.017240769670547 2 49.058894556676123 1 2 66.368519440130854 8.7823489191750106 2 38.040292580249329 12.102614135940119 2 50.592411309224715 20.921849384413221 2 61.055848348792125 5.0694210948849925 2 29.997272426427696 14.745606577414936 2 48.774588647919806 8.5841334505283697 2 63.039234324326728 18.573145705779041 2 34.698074687892195 10.359140072638628 2 44.160357903184916 7.9582168231278532 2 60.137920080770051 22.669682999121747 2 30.504208549425449 1 2 51.886541921104694 3.0801689393292824 2 66.248745792730716 2.5894371451930076 2 35.78660070269116 16.287139692592092 2 46.5985353728531 9.3297560444172376 2 62.530653785950051 1 2 32.092799019203369 21.451740313718304 2 46.140939101006836 12.027275589761729 2 62.044598280215645 9.6438729777919008 2 33.715004257714725 1 2 41.534271558556419 2.5049952102318578 2 57.698324399382564 11.506700179878699 2 28.047600259427799 11.303543857594908 2 45.261933826223739 5.2921799644223269 2 67.935552091481213 9.5159865940110056 2 33.853449693309884 13.335986206926888 2 46.939916578663336 16.436838351323647 2 67.204776310137319 2.063288931087861 2 33.467552579660726 15.09288331147509 2 50.459974216793668 8.6202202001172097 2 62.40613737326494 13.229560386286556 2 32.540355503809813 6.2533749408382429 2 45.621315064797756 9.0696072431117098 2 58.367565878370037 16.010436926677361 2 31.569965567339271 4.6615961033126627 2 48.746376294050165 6.5255773453797694 2 64.786036297287481 7.084073624306181 2 38.399806567278716 21.360353560714977 2 44.363999530184799 18.356223530248027 2 60.371164139097459 2.6695639823952888 2 31.927734880931812 13.827483684372421 2 49.730012049875754 11.654984423594771 2 59.366830491529761 7.1431883315750122 2 31.937631957632551 3.5391509257557567 2 44.161453657187216 2.7098714264284638 2 54.963352809633022 16.217499385724953 2 31.242662482110678 7.1946562707622244 2 47.778213775370773 3.7848724073030899 2 62.121267284874349 7.7270301851655976 2 36.157175424251669 15.239096590847982 2 50.466445773054872 24.222621694404324 2 64.755505779405922 5.5397271999189277 2 29.528511410103505 12.406084848808538 2 46.939504021526766 7.7438797379708149 2 59.305243850082157 18.091159657711792 2 32.668570081379421 9.0508510094036296 2 45.411498003241476 2.4993341216400289 2 65.676871588138155 19.415062458415822 2 28.389027220280564 1 2 50.603341188243583 2.2330664067551367 2 66.94532008002578 1 2 37.392296466704572 19.879936791796137 2 46.84592307793227 14.591978105878267 2 61.121212967083402 3.1267055210420347 2 37.495321813087969 22.812354131015606 2 48.372659306466886 13.125557808950278 2 63.024545682609975 10.821007643143819 2 37.477303830885859 1.2690620244052033 2 45.904102446574051 1 2 57.757959969498451 14.369041178410423 2 30.201790605610746 5.9832571824756924 2 47.691627115767744 2.1996214227091699 2 66.127131121899453 13.066430275948528 2 31.829486776381426 10.357649105812161 2 48.178803401333191 18.745101126651882 2 64.818357224060478 1 2 33.972171522995488 17.498133603691596 2 51.910926943905693 7.2357051940316062 2 61.617601839030762 16.791482834684739 2 33.890918979876218 3.8173718740811133 2 42.172426318587654 9.9936470646779618 2 57.177315016924751 16.122689566606262 2 30.141091972985464 3.4827830896460603 2 47.798332799653053 7.4598355290480782 2 64.914337730576449 4.5799035126030629 2 36.486366351440765 17.429478299707196 2 45.895864570569756 24.285053660477594 2 59.840248385696739 1 2 32.905147368536511 17.056642671207552 2 49.840527917646988 16.011021888978505 2 60.637216546138127 8.6250885686937764 2 31.431538414336725 2.1141077979391598 2 42.952942609503054 6.6376895246377368 2 52.469567731905343 18.052121447391627 2 30.003321359081625 9.6784231616010334 2 47.409858077648117 1 2 63.966578086379009 8.3193045609466711 2 37.523204426200259 13.823977442900929 2 49.756022976424319 19.792548606616172 2 63.294781806977639 3.6085172699634414 2 </DataArray>
</Points>
<Cells>
<DataArray Name="connectivity" format="ascii" type="Int32">0</DataArray>
<DataArray Name="offsets" format="ascii" type="Int32">0</DataArray>
<DataArray Name="types" format="ascii" type="UInt8">1</DataArray>
</Cells>
<PointData>
<DataArray Name="Points" NumberOfComponents="3" format="ascii" type="Float32">0 0 0 30.569326865659814 13.797108355085742 2 48.144767611754069 9.3508437181357404 2 63.132271262343558 16.791231295614377 2 34.57511674636217 8.4192153770651643 2 46.516882304680536 6.1700534891316963 2 60.479743245483931 20.995818942405592 2 29.836465922253399 1 2 49.578948040753211 3.6166700538416552 2 65.861512409895951 4.4231194728706766 2 37.226266988400518 15.729284433211946 2 45.603367092595498 10.958560685201013 2 61.611468663308621 1.995955303821962 2 32.918667333106384 23.222790533520964 2 48.422558416639141 10.377732193682281 2 61.004922059771005 9.5531255684748935 2 34.522061670098068 1 2 43.434907367950849 1 2 57.323244396331958 12.899034194302434 2 29.035585488379034 9.4688529655511591 2 44.184003695761213 3.6850870997248246 2 66.825195342184969 9.5407804661570772 2 32.708841441364463 12.152367117894995 2 46.785022812024295 17.539222586435738 2 65.533217684281681 1 2 31.831306951212774 15.770757616204184 2 50.123262935593807 9.6138043407548661 2 61.376800925618362 11.816214163867867 2 33.964909678756179 5.6373754078145737 2 44.625002429780956 10.051177854756075 2 59.849199502181726 15.268224368084107 2 31.388218735206681 6.4008673047969182 2 49.495765645380359 7.0830815442385671 2 65.538803970597471 7.5234649116518577 2 39.466018563993352 22.918372854667265 2 43.952846348637379 17.157549149083227 2 60.527965934114015 4.0754754622164482 2 34.579395590214958 15.328734633025476 2 49.51246329085636 14.652245481079824 2 60.347981088774347 5.6083191937040908 2 31.153222258260016 2.9920390613895949 2 43.27587031525875 4.4224748459143903 2 56.590261579907995 13.929683721519018 2 33.641984384270408 7.3957388586004846 2 48.304742991154754 2.9159106084145909 2 63.042145741081427 7.9921105602214562 2 35.676549199509843 12.621211475361491 2 48.917581023539668 21.644020950752374 2 63.193266094758627 5.4354958811668075 2 30.661045979463761 11.829039364353388 2 46.033716363735053 8.0437852602426769 2 62.053990391421685 18.02518077973491 2 33.393574808557631 10.353137740376239 2 46.787371572973598 4.0910786631055833 2 62.901990690616699 21.429929155950038 2 29.857197651135031 4.4069655813568307 2 50.821882705596984 1 2 67.230941859768947 2.9584085822266388 2 34.749276725440808 19.870089824687909 2 47.071443296759405 12.980881116507964 2 62.350947877967421 2.5225189517097788 2 34.786850977625079 23.159867529529251 2 47.453170728980169 15.502632029899209 2 63.861058850988172 11.677427619087569 2 35.249259434939276 1.9511471789241233 2 44.840565099764078 1.8955727707704231 2 60.020750511823522 12.839957521802976 2 30.863148721771633 8.2425074195928847 2 46.144910833657057 2.8068348028572578 2 67.674244085004958 11.323869453571916 2 31.200787255127267 12.898315639643499 2 46.613583971631591 20.189705362227315 2 63.243768476037332 1 2 31.328523056281409 18.636611524264147 2 51.183200230157759 8.06152749403401 2 61.518170383585797 14.752639258826839 2 32.497445360961251 4.4117211106522838 2 44.50060215653761 11.192663404942992 2 58.831528730616213 19.818900604631736 2 29.410193174036387 5.386504427790582 2 47.336862873010773 5.5909914497875386 2 64.346212081590565 2.7553344865847746 2 38.862194693143422 18.555228373381947 2 44.723226623073344 20.050250504915439 2 58.889923037445762 1 2 33.203100886223375 19.906441861265918 2 48.570605018036972 16.371747997085457 2 61.271633829810931 6.4322561532970175 2 32.012131561302979 1 2 43.892870004148499 6.042058613043424 2 55.032701829471755 17.514926472814157 2 31.783063078780838 9.34688697352356 2 48.62176741303638 2.0698104796535342 2 64.862404434638449 8.6179429916847798 2 37.112382057126752 12.264350947308127 2 51.484058720037112 22.392671336546137 2 62.16954277068082 5.2745336237486313 2 29.016423855478436 15.051522986776044 2 48.733332598295164 7.76208654299794 2 64.281691908719679 18.848559716063054 2 34.616941839002564 9.501763419888082 2 44.62014357686666 7.1583452215727856 2 61.975477907922809 22.913975919744338 2 29.630893004683418 2.5317995653738472 2 50.353405829071313 4.287199243955242 2 65.459778131646104 3.2053554538584526 2 35.56325570502581 18.116614183980118 2 47.271951662526078 10.167671731654835 2 61.730530073750622 1 2 31.655485803687469 19.996239550456117 2 47.312510974065589 11.964375722187723 2 62.352074208148245 8.8167673505708475 2 32.921128240373527 1.8861059149323951 2 42.617727013870777 1 2 58.6032863043161 11.787560161541561 2 29.17547524856321 10.534019331963325 2 45.846215054031575 4.3893221370296986 2 67.907650896071544 8.5286937508696674 2 34.933688699358058 13.360594858559201 2 45.87048987202364 15.999207218829374 2 66.225997805682653 1 2 33.033454805817492 15.992603044292334 2 50.060732173450852 7.9129933936921901 2 61.064447368890278 12.783791640852428 2 33.160689716722707 5.6079582438547799 2 44.796808977547933 8.6438252294832338 2 56.747786372458918 15.117462161374178 2 30.808355434141603 5.3250770857803413 2 48.391229420077337 5.8318864666481067 2 63.858796208544717 7.1498208312513141 2 38.789631615176496 19.902073172807125 2 45.495632973255319 17.512205596084147 2 59.441896470879954 2.775214911572967 2 33.219878244089202 14.170290578897353 2 50.082051681362131 12.746440548629668 2 59.829608080058435 6.3512871848914783 2 32.925825381053293 3.4392170245422906 2 43.57353762228594 1.9788836365297464 2 55.648136473729316 15.15913439550377 2 31.715548984766677 8.2528299417351132 2 47.910545755276097 4.8313798419912102 2 62.125546244299713 6.3200703425725342 2 34.97435310380034 14.378129975758227 2 48.757428447533108 23.357125325800624 2 63.876713032908476 4.5103350253563095 2 29.704193179643024 13.322803147050575 2 47.352178533028585 8.7212352322377686 2 60.364743232501453 17.382782736831505 2 33.41748481109714 9.5013180840584859 2 45.272312608282064 3.4667570281382352 2 64.242291712513463 20.489501905499907 2 29.127231454645703 1 2 49.704963093437485 1.8332821140583371 2 67.713383941757144 1 2 37.303016332273721 18.515415175919866 2 45.788845528617784 14.559320782673101 2 61.989810891835852 3.4601582874146346 2 36.611173704632129 21.443729546704024 2 47.894247730899238 13.975030686653623 2 63.163523302740941 9.8635130443720662 2 36.192683890468246 1 2 45.138287370788795 1 2 59.13996406227249 13.545303589063765 2 30.229654749553841 7.0112760501593261 2 46.605307079143167 1 2 66.897584744523385 12.245577957547818 2 31.540752974984688 11.92515312264061 2 49.452388091267416 18.314264940048744 2 64.049630131075943 1 2 32.622429738927416 18.468801626647753 2 52.03606658358995 6.3078955861026849 2 60.447018505096153 16.000583550241934 2 33.454673373358787 4.6193923251130133 2 43.603045686853605 11.013600920857705 2 58.951311002430678 16.819700712884259 2 30.786650039950075 4.1406159142646306 2 47.291234685736299 6.7008255975722557 2 65.427626883568621 6.2883655098965052 2 37.519804762714344 16.73584734346888 2 46.501607967317128 22.735378766061253 2 60.373273771871062 1.7269632606551546 2 34.292555451996144 18.613966490901216 2 50.035425777424088 17.116329577209665 2 61.225278054663185 7.9059187706158651 2 31.283676459231284 1 2 43.385554683600581 7.4008649720013704 2 53.62883742011374 17.138371685992766 2 30.92048368124491 9.8978148688400793 2 48.213701587232464 1 2 63.877106834508616 9.3041663299844899 2 36.543198352508767 13.280359319213492 2 50.862965647977397 18.921753453382536 2 62.805732615368271 4.3487058002670835 2 31.772797460473114 14.712678895770976 2 49.262864666813947 9.5259543710176402 2 62.038354268816612 15.546537583585023 2 33.65443555113692 8.4666865755962899 2 44.71333297856637 6.126304771024321 2 60.191873221120417 19.501855485222226 2 30.471850535489367 2.2450906716383647 2 49.543010442875307 2.7413782190983746 2 66.796885363021204 4.7209522034558784 2 36.206847439929817 14.273703782895037 2 46.810504477231945 11.053646473048538 2 60.830669594280877 1 2 31.185514907584654 22.938035575111126 2 48.195136576562085 11.293491466251693 2 61.389869305468096 10.502265694078968 2 35.38605645297261 1 2 41.893738612871694 1 2 58.261279813558104 13.078028675984806 2 29.768494990665982 7.8208832632630196 2 44.865910594338644 4.3794091371220887 2 65.509951273573989 9.2975437940283339 2 34.267654753278947 12.389514485826901 2 47.002680835707856 18.747441202366517 2 65.457171945880532 2.1872037901063011 2 30.678994708029681 15.54421379498873 2 51.937105713178639 10.201444921087759 2 60.413728670507496 11.241635637729926 2 34.797818698310621 5.1254969170415601 2 45.842945578435561 10.089182916009735 2 58.655600262429708 14.893343823265312 2 32.765791645713371 7.0518675205483774 2 50.136387122105283 6.5276976404261173 2 66.384169420117288 7.737713583631419 2 38.165656453339928 24.395543468456243 2 42.842947892845075 17.999753954021404 2 59.660865855143399 3.8504782706028564 2 34.703693744477306 16.598402388215295 2 50.576696118640839 14.397100091889904 2 61.650311205537335 4.380830159434141 2 32.358501854505128 2.5378275027989319 2 43.34260583549267 3.1874065069038493 2 55.524692514406759 13.616241581515112 2 32.559678023747949 7.8681110514973538 2 48.720363559337791 3.9177258532733132 2 62.952689303350112 6.7579354033717376 2 36.31198304021747 11.602115857384781 2 48.363739895364247 20.124490386876502 2 63.895023900321462 5.9860744329800735 2 30.55170539785091 10.783739026551727 2 45.633801341478389 7.3354150826223394 2 61.07142549694791 18.712110032473579 2 33.344753748626637 11.33640849870199 2 47.008707544460044 3.2052212006549974 2 62.084818735125332 19.998277684422408 2 29.104965434449426 3.4550175806838026 2 49.994337736300032 1 2 66.549188207169806 3.7361686097414233 2 36.040173394685446 19.725529342990594 2 46.153803932523871 13.440868467320506 2 63.170316074205203 2.5081134694717946 2 35.138579222915467 21.41198370667005 2 48.566894213107631 15.055611105810023 2 62.257387804152913 11.425462671173001 2 36.312725374753754 2.1772854885030588 2 44.250470022613484 1 2 60.140247412147772 14.16033711003184 2 30.115957397143017 8.7785248815560859 2 46.713819038782546 2.110904494961265 2 67.04952286860798 10.550138701430676 2 32.71432745596595 13.029470261424057 2 47.178358756311965 21.410151276840857 2 64.026290832340322 2.0200133600458114 2 30.29416104351753 18.030827413551439 2 52.264494163742853 8.2728064910830508 2 61.564172649034411 13.783039550669393 2 31.976429455572553 5.4915482878788699 2 45.088613261091552 12.091663781768442 2 58.10024450606624 18.574668900919114 2 29.26019805041825 6.3802933970686802 2 46.520878461116098 5.0120177455516854 2 64.565579686958529 3.6756106526592158 2 40.259508483809626 17.729725004201153 2 45.655379329285815 19.047425497003804 2 59.017066201812213 1.8223022378925127 2 33.654557643421192 21.524439649596541 2 48.328204890782992 17.347248093008993 2 60.597113188806055 7.1201918634909092 2 32.865091832190224 1 2 45.69383973928386 6.2841374829622936 2 55.724398048589677 18.489614037810078 2 32.305134222330587 11.017240769670547 2 49.058894556676123 1 2 66.368519440130854 8.7823489191750106 2 38.040292580249329 12.102614135940119 2 50.592411309224715 20.921849384413221 2 61.055848348792125 5.0694210948849925 2 29.997272426427696 14.745606577414936 2 48.774588647919806 8.5841334505283697 2 63.039234324326728 18.573145705779041 2 34.698074687892195 10.359140072638628 2 44.160357903184916 7.9582168231278532 2 60.137920080770051 22.669682999121747 2 30.504208549425449 1 2 51.886541921104694 3.0801689393292824 2 66.248745792730716 2.5894371451930076 2 35.78660070269116 16.287139692592092 2 46.5985353728531 9.3297560444172376 2 62.530653785950051 1 2 32.092799019203369 21.451740313718304 2 46.140939101006836 12.027275589761729 2 62.044598280215645 9.6438729777919008 2 33.715004257714725 1 2 41.534271558556419 2.5049952102318578 2 57.698324399382564 11.506700179878699 2 28.047600259427799 11.303543857594908 2 45.261933826223739 5.2921799644223269 2 67.935552091481213 9.5159865940110056 2 33.853449693309884 13.335986206926888 2 46.939916578663336 16.436838351323647 2 67.204776310137319 2.063288931087861 2 33.467552579660726 15.09288331147509 2 50.459974216793668 8.6202202001172097 2 62.40613737326494 13.229560386286556 2 32.540355503809813 6.2533749408382429 2 45.621315064797756 9.0696072431117098 2 58.367565878370037 16.010436926677361 2 31.569965567339271 4.6615961033126627 2 48.746376294050165 6.5255773453797694 2 64.786036297287481 7.084073624306181 2 38.399806567278716 21.360353560714977 2 44.363999530184799 18.356223530248027 2 60.371164139097459 2.6695639823952888 2 31.927734880931812 13.827483684372421 2 49.730012049875754 11.654984423594771 2 59.366830491529761 7.1431883315750122 2 31.937631957632551 3.5391509257557567 2 44.161453657187216 2.7098714264284638 2 54.963352809633022 16.217499385724953 2 31.242662482110678 7.1946562707622244 2 47.778213775370773 3.7848724073030899 2 62.121267284874349 7.7270301851655976 2 36.157175424251669 15.239096590847982 2 50.466445773054872 24.222621694404324 2 64.755505779405922 5.5397271999189277 2 29.528511410103505 12.406084848808538 2 46.939504021526766 7.7438797379708149 2 59.305243850082157 18.091159657711792 2 32.668570081379421 9.0508510094036296 2 45.411498003241476 2.4993341216400289 2 65.676871588138155 19.415062458415822 2 28.389027220280564 1 2 50.603341188243583 2.2330664067551367 2 66.94532008002578 1 2 37.392296466704572 19.879936791796137 2 46.84592307793227 14.591978105878267 2 61.121212967083402 3.1267055210420347 2 37.495321813087969 22.812354131015606 2 48.372659306466886 13.125557808950278 2 63.024545682609975 10.821007643143819 2 37.477303830885859 1.2690620244052033 2 45.904102446574051 1 2 57.757959969498451 14.369041178410423 2 30.201790605610746 5.9832571824756924 2 47.691627115767744 2.1996214227091699 2 66.127131121899453 13.066430275948528 2 31.829486776381426 10.357649105812161 2 48.178803401333191 18.745101126651882 2 64.818357224060478 1 2 33.972171522995488 17.498133603691596 2 51.910926943905693 7.2357051940316062 2 61.617601839030762 16.791482834684739 2 33.890918979876218 3.8173718740811133 2 42.172426318587654 9.9936470646779618 2 57.177315016924751 16.122689566606262 2 30.141091972985464 3.4827830896460603 2 47.798332799653053 7.4598355290480782 2 64.914337730576449 4.5799035126030629 2 36.486366351440765 17.429478299707196 2 45.895864570569756 24.285053660477594 2 59.840248385696739 1 2 32.905147368536511 17.056642671207552 2 49.840527917646988 16.011021888978505 2 60.637216546138127 8.6250885686937764 2 31.431538414336725 2.1141077979391598 2 42.952942609503054 6.6376895246377368 2 52.469567731905343 18.052121447391627 2 30.003321359081625 9.6784231616010334 2 47.409858077648117 1 2 63.966578086379009 8.3193045609466711 2 37.523204426200259 13.823977442900929 2 49.756022976424319 19.792548606616172 2 63.294781806977639 3.6085172699634414 2 </DataArray>