<?xml version="1.0" ?>
<VTKFile byte_order="LittleEndian" type="UnstructuredGrid" version="0.1">
<UnstructuredGrid>
<Piece NumberOfCells="0" NumberOfPoints="4">
<Points>
<DataArray NumberOfComponents="3" format="ascii" type="Float32">0 0 0 8.3558247312264644 1.2904683137721003 2 65.405718784542756 1.2 2 68.369545873657202 3.6033247284492695 2 </DataArray>
</Points>
<Cells>
<DataArray Name="connectivity" format="ascii" type="Int32">0</DataArray>
<DataArray Name="offsets" format="ascii" type="Int32">0</DataArray>
<DataArray Name="types" format="ascii" type="UInt8">1</DataArray>
</Cells>
<PointData>
<DataArray Name="Points" NumberOfComponents="3" format="ascii" type="Float32">0 0 0 8.3558247312264644 1.2904683137721003 2 65.405718784542756 1.2 2 68.369545873657202 3.6033247284492695 2 </DataArray>
<DataArray Name="forces" NumberOfComponents="3" format="ascii" type="Float32">0 0 0 0.0071934605922774194 -0.0022408397847610787 0.0 -0.0085521595542867711 -0.10021631473811243 0.0 -0.0015278754847260767 -0.0092570879830426479 0.0 </DataArray>
<DataArray Name="radii" format="ascii" type="Float32">0 1.2 1.2 1.2 </DataArray>
</PointData>
<CellData/>
</Piece>
</UnstructuredGrid>
</VTKFile>
