<?xml version="1.0" ?>
<VTKFile byte_order="LittleEndian" type="UnstructuredGrid" version="0.1">
<UnstructuredGrid>
<Piece NumberOfCells="0" NumberOfPoints="14">
<Points>
<DataArray NumberOfComponents="3" format="ascii" type="Float32">31.529691907676174 5.1480681334142009 2 59.360428146747644 3.1298174510482912 2 88.507242246095686 5.0613212317585461 2 97.569582820327454 2.8096328009679805 2 28.995527270264731 1.143365918906393 2 60.229197610501124 5.2249506571793871 2 90.422844834753619 1.143365918906393 2 98.051643626521553 6.6819558630775786 2 29.344073424356111 4.4767776870326825 2 58.243457565143927 1.143365918906393 2 98.8566340810936 1.143365918906393 2 30.630535597208631 2.6841970312115615 2 90.097412083412166 3.4397981814545942 2 98.8566340810936 4.5878706866109837 2 </DataArray>
</Points>
<Cells>
<DataArray Name="connectivity" format="ascii" type="Int32">0</DataArray>
<DataArray Name="offsets" format="ascii" type="Int32">0</DataArray>
<DataArray Name="types" format="ascii" type="UInt8">1</DataArray>
</Cells>
<PointData>
<DataArray Name="Points" NumberOfComponents="3" format="ascii" type="Float32">31.529691907676174 5.1480681334142009 2 59.360428146747644 3.1298174510482912 2 88.507242246095686 5.0613212317585461 2 97.569582820327454 2.8096328009679805 2 28.995527270264731 1.143365918906393 2 60.229197610501124 5.2249506571793871 2 90.422844834753619 1.143365918906393 2 98.051643626521553 6.6819558630775786 2 29.344073424356111 4.4767776870326825 2 58.243457565143927 1.143365918906393 2 98.8566340810936 1.143365918906393 2 30.630535597208631 2.6841970312115615 2 90.097412083412166 3.4397981814545942 2 98.8566340810936 4.5878706866109837 2 </DataArray>
<DataArray Name="forces" NumberOfComponents="3" format="ascii" type="Float32">-0.003408223724206958 0.010088082377059155 0.0 0.012168169209341927 0.011021221718019291 0.0 -0.01472705141488705 0.015124883700368004 0.0 -0.051445018071234305 0.030349820354690554 0.0 0.017903395054233287 -0.053184538894115604 0.0 -0.000183970596529099 0.030989309910056297 0.0 -0.015456975728584614 -0.077948009324803363 0.0 -0.020124096354400194 0.053038254230503575 0.0 -0.029036424282327264 0.076953993122293687 0.0 -0.01962849526604124 -0.020552763380248678 0.0 0.13190542731564792 -0.17360688678533939 0.0 -0.015872346691909296 0.06934351963880217 0.0 -0.00079278696575674212 0.01761406252018053 0.0 0.14478677397774173 0.039838225185239107 0.0 </DataArray>
<DataArray Name="radii" format="ascii" type="Float32">1.143365918906393 1.143365918906393 1.143365918906393 1.143365918906393 1.143365918906393 1.143365918906393 1.143365918906393 1.143365918906393 1.143365918906393 1.143365918906393 1.143365918906393 1.143365918906393 1.143365918906393 1.143365918906393 </DataArray>
</PointData>
<CellData/>
</Piece>
</UnstructuredGrid>
</VTKFile>
