<?xml version="1.0" ?>
<VTKFile byte_order="LittleEndian" type="UnstructuredGrid" version="0.1">
<UnstructuredGrid>
<Piece NumberOfCells="0" NumberOfPoints="620">
<Points>
<DataArray NumberOfComponents="3" format="ascii" type="Float32">24.726659722573842 9.4633165329135931 2 40.031728653285043 19.502509831695406 2 52.27287564223662 18.095623809144598 2 74.863249417388829 20.975406097152568 2 75.164620731124657 9.7098926907120209 2 48.463881136793809 7.2963701985123306 2 57.550639633671103 14.520200564300925 2 74.186320103562508 14.660006680631179 2 86.817539254293735 16.265868020357164 2 26.49665859584011 6.5478349080571387 2 43.657500361015373 4.7089005792688452 2 52.149463294325521 7.3986029315496626 2 65.802983267854103 14.550409175678451 2 80.002806083194216 14.721385916624547 2 44.847842242048664 1.3 2 60.595208963358537 15.225270068792717 2 73.965638218191174 1.3 2 83.900862693586646 1.3 2 20.913370265437205 6.0846169455609518 2 41.975470760930953 22.68261103306812 2 53.196840558442567 8.6262524865765347 2 69.693468083004348 18.627131187970278 2 81.722506526091721 9.2340775043704308 2 29.987018373970809 16.740769742701801 2 50.597658298132544 3.2142829973073281 2 55.47141891954837 17.358824601815542 2 70.88459621021795 6.3469151242789517 2 88.394734322977683 6.1950523734110616 2 29.9244796589856 5.0272222192446439 2 38.480894591735449 8.2970622163422849 2 57.407711550800357 1.3 2 70.752984423405934 10.76729743856378 2 88.679016127655757 17.352126677594978 2 11.783395134724742 13.454473273254997 2 45.224474071211944 10.766549117314497 2 57.956622002765748 8.0510391361657021 2 76.108147814376252 1.3 2 83.926037005253306 4.0130120917373668 2 22.587539709084467 11.993383231931587 2 42.181577528811957 13.254851193641315 2 49.922810600273642 10.748168019862575 2 77.395880629153226 13.819985987225987 2 76.937963994675982 6.4900533729351118 2 6.837631609247846 6.4643176684210726 2 19.659106818029905 10.3059552309625 2 50.002162233984059 1.3 2 61.80145840095647 22.857234606280599 2 74.046854335716233 3.3687441149638335 2 87.51050448650517 9.488631428495589 2 31.888321418870241 17.041746791938678 2 42.016239117506615 9.8991712245842614 2 53.412345268878397 1.3 2 63.822170530302053 21.95438429594083 2 84.654454772809643 15.137586360174909 2 43.766091082489545 6.6423140219519139 2 59.832806223988996 9.9722442104838507 2 71.661554910972612 3.6504635513370993 2 82.220415045676361 3.6687792938143589 2 23.153453743373941 1.954768563819699 2 47.758312514298311 20.619112298334681 2 52.779249096301342 14.773222010677792 2 72.386487094515488 22.576623409237104 2 78.697797311244173 12.332271805163941 2 1.3 5.1007134326987167 2 20.755438156986749 13.40531263328787 2 49.299369606029934 9.5242994694507637 2 49.470042923039507 20.593202483701205 2 69.230209535648456 3.331528735931431 2 88.799013333771157 1.3 2 27.036314810320345 3.011771438593716 2 37.268869130311892 17.912276389305514 2 54.381507486841805 1.3 2 67.550720115836782 8.8739717954210242 2 81.479204353153534 22.580765470273096 2 45.091698133409857 12.984120230144629 2 55.547533568311167 11.752588650311312 2 79.304035349813859 7.3164754452425305 2 86.518585373066443 6.0593679803036187 2 19.802559120262565 8.3460922008766083 2 44.042314729455896 15.848975747312235 2 48.036990870886733 16.678199368708931 2 77.176172180123899 20.643440290404452 2 73.809723459087152 10.726856598254898 2 47.74462684413659 2.9271605182458114 2 56.832295595976944 15.811177916111758 2 71.136992821030901 13.302362665474433 2 89.011799878590153 13.426125522817472 2 24.162007595212433 5.5089643384837412 2 41.445067978296791 2.5610948276458463 2 55.715503110324605 6.9876351424349092 2 66.356052862713355 15.995918741886907 2 79.010172976145995 19.741652670436928 2 46.633771962365685 2.6872542394129648 2 59.101260030644589 16.04452909795835 2 75.385666146449111 3.3588164808382799 2 86.720382650054361 1.3 2 45.199924442647117 17.648327424925508 2 51.651863548817204 8.7159124778578079 2 68.726233719703217 13.530744451133639 2 83.170747535868685 9.0931809115237208 2 5.7710750179494976 1.3 2 24.742795195514638 15.123059415295351 2 51.178191195809305 6.5591899752290175 2 54.769444830765622 22.274211343391201 2 69.522285494487789 8.6967110863820469 2 86.473346934997821 4.7496587211841481 2 29.846546265152355 1.3 2 40.224003979026413 11.606226865290285 2 57.59232965729759 4.4372450845582545 2 73.055617102650388 8.8310594476112403 2 86.899213602562369 20.905445356053402 2 15.558080758231016 11.55288898724622 2 45.754666959950143 7.8760430568995403 2 60.277299766773368 7.1831930677059859 2 77.318547849251175 4.6684855481153935 2 82.289859373503916 6.3291060738257574 2 41.753466642641143 14.566170215046403 2 50.834506766668547 15.493885394261726 2 77.447085505019274 12.428824953550709 2 79.711490932181533 6.1245520680441388 2 18.987494202122388 13.457903591287003 2 48.372279478191778 1.3 2 58.242035782878077 20.805632034818249 2 74.588740406813073 6.7340637757531141 2 90.769334041999414 11.203169617928401 2 28.234567261311401 13.678837503933693 2 40.047312985462568 6.6670868265353089 2 52.611087082042026 3.4748664309743242 2 67.696337090423086 23.06868405494162 2 81.82180608970242 12.362975686591618 2 8.1347224486141982 8.6832398008572032 2 46.019242482076073 5.0267636798059447 2 57.05480672559419 9.0951902916715568 2 70.016659085949996 1.3 2 79.135067762352918 1.3 2 46.774504784121881 15.526256385273273 2 52.48171240888167 12.515197957199138 2 73.066999475285726 18.188819778318312 2 78.282652019639386 9.040294621939216 2 1.6090738478985949 9.9037471350601631 2 24.062956803756705 13.498087615686719 2 46.994036459337217 10.736018562474126 2 52.355293601140673 23.443598837761051 2 67.951906769792672 1.3 2 87.699038140732526 3.8447229889378267 2 24.327307791324195 1.3 2 37.866119895716729 14.605088276064437 2 53.871118225210424 3.7590675575103871 2 67.017776707448405 11.172846270602022 2 80.576041586964777 19.418363783750653 2 47.455124061119555 14.204997316021545 2 55.787855167316572 8.3744817479716325 2 81.499955804242461 5.5888127826871035 2 84.471786079627776 12.973593663894437 2 25.727863769787046 10.723176853544025 2 37.778698948269131 20.313675633919818 2 53.813995061924956 18.263441975997733 2 75.899524410569029 18.985344023530114 2 75.808961166755267 8.7192267732653495 2 47.634601735983118 6.376969197807127 2 57.55803641173582 12.066018086109985 2 74.42374566480359 17.011057332965411 2 86.037591688952972 14.866684823552577 2 26.347213353429279 8.7412492644875943 2 43.922967058149709 2.9952094434602907 2 54.388029584062203 7.0824521850924009 2 64.234152039426107 15.225924709913693 2 81.110815714250066 16.520196236795961 2 43.167024706343241 1.3 2 58.786112968277585 13.584413310266827 2 72.934575883630743 1.3 2 85.673732772284893 1.3 2 24.063701963201229 7.3267451217682646 2 44.381603443924185 23.063926377868434 2 53.413892369507288 11.135602976380085 2 70.251803317679261 15.657590284776068 2 79.344481228120074 9.7882125473282056 2 27.427395485418614 17.484636037252862 2 50.099330083860004 6.0587001011661394 2 54.343634566703287 20.294004051558574 2 73.005500065769795 6.508690776345138 2 87.533234058719046 7.3090794864119886 2 31.157170454162742 3.2175848879538056 2 39.609020577950275 9.1604620419744638 2 56.762824425893015 2.4135300389446992 2 70.481897564263193 9.4092156373054561 2 90.32827738404626 20.850047121670123 2 11.12836823571152 8.4521059595639123 2 43.981265228427631 8.8353197542559538 2 58.49668481542237 6.2880053941513436 2 77.70845651544937 2.3058991213208184 2 83.367303705961334 5.6786780251559286 2 21.276407595121348 7.9504983661449868 2 43.336401482552603 11.029560736727186 2 48.116578042592693 12.504611017003674 2 75.70579473203955 14.839900097513068 2 76.564401397390824 7.6892951695913814 2 17.064475117026461 7.2335111672676202 2 49.635212259271761 3.0741730804724599 2 59.449818696354441 19.619870804049199 2 75.435500300931352 5.4817914320118879 2 86.016625562563334 9.487972016210529 2 29.971488735652738 14.33723083772828 2 41.294043254549123 8.1445255872085092 2 51.701898607450943 1.3 2 67.793895074255374 18.947146573586483 2 82.542150218458303 15.585593363308618 2 43.169969266072414 7.7743387205047627 2 60.901446589937969 10.803282008146418 2 72.3813920915089 4.8255202257526379 2 82.972132711343363 1.3 2 20.662031741132882 2.7128405347828481 2 45.978443706080512 21.54707225797852 2 54.578295347105488 13.724146500191395 2 71.208170589569107 20.496960371869186 2 80.462120618852111 11.832586829503121 2 4.6326174520375778 6.1131054695699039 2 21.586966819603198 17.864412937384436 2 47.650622139630443 9.5977488594133149 2 52.64909075061022 19.746519567548635 2 70.57138705589152 4.3211650672257091 2 90.844233932891299 1.3 2 29.31889711610075 3.6768269132626092 2 35.816646782266965 19.193772180775454 2 55.425574830993675 1.3 2 68.239400052582283 11.268955594089105 2 84.31930030571192 21.478411310086635 2 43.805371496591647 13.445555502744721 2 57.099244534606363 13.124026958762844 2 80.548834064400921 6.9066171386861983 2 84.79006022114568 8.8450626888229067 2 42.524246300938103 16.713383699417104 2 49.304401454642381 18.829210312938297 2 74.587140918572743 23.472455840632019 2 72.327551563129845 12.762420624600486 2 17.080054868734198 10.532658150962618 2 48.503203355050964 4.7529426216503063 2 55.519363157378507 15.660417346385305 2 73.463652274759127 15.744481922955442 2 87.021248906145289 12.851594352455137 2 24.37458861912571 3.2816670688397607 2 41.232968523158448 1.3 2 56.085458903707398 4.6618633916050412 2 67.820629379998536 15.866423809264207 2 77.86982074538534 16.903831127322761 2 45.740070744314366 1.3 2 61.257622537908269 16.709535633898579 2 75.133492770653504 1.3 2 87.820430729104785 1.3 2 42.820730618503823 19.090999531671255 2 51.359204870847286 10.250588861126081 2 69.527618788448223 11.414167276497864 2 84.35599922024447 11.379084920229689 2 1.3 1.3 2 23.710601903471165 19.156858477625434 2 49.727903917472396 7.3051078881851588 2 57.681848969577317 22.853366693576596 2
[...]
<PointData>
<DataArray Name="Points" NumberOfComponents="3" format="ascii" type="Float32">24.726659722573842 9.4633165329135931 2 40.031728653285043 19.502509831695406 2 52.27287564223662 18.095623809144598 2 74.863249417388829 20.975406097152568 2 75.164620731124657 9.7098926907120209 2 48.463881136793809 7.2963701985123306 2 57.550639633671103 14.520200564300925 2 74.186320103562508 14.660006680631179 2 86.817539254293735 16.265868020357164 2 26.49665859584011 6.5478349080571387 2 43.657500361015373 4.7089005792688452 2 52.149463294325521 7.3986029315496626 2 65.802983267854103 14.550409175678451 2 80.002806083194216 14.721385916624547 2 44.847842242048664 1.3 2 60.595208963358537 15.225270068792717 2 73.965638218191174 1.3 2 83.900862693586646 1.3 2 20.913370265437205 6.0846169455609518 2 41.975470760930953 22.68261103306812 2 53.196840558442567 8.6262524865765347 2 69.693468083004348 18.627131187970278 2 81.722506526091721 9.2340775043704308 2 29.987018373970809 16.740769742701801 2 50.597658298132544 3.2142829973073281 2 55.47141891954837 17.358824601815542 2 70.88459621021795 6.3469151242789517 2 88.394734322977683 6.1950523734110616 2 29.9244796589856 5.0272222192446439 2 38.480894591735449 8.2970622163422849 2 57.407711550800357 1.3 2 70.752984423405934 10.76729743856378 2 88.679016127655757 17.352126677594978 2 11.783395134724742 13.454473273254997 2 45.224474071211944 10.766549117314497 2 57.956622002765748 8.0510391361657021 2 76.108147814376252 1.3 2 83.926037005253306 4.0130120917373668 2 22.587539709084467 11.993383231931587 2 42.181577528811957 13.254851193641315 2 49.922810600273642 10.748168019862575 2 77.395880629153226 13.819985987225987 2 76.937963994675982 6.4900533729351118 2 6.837631609247846 6.4643176684210726 2 19.659106818029905 10.3059552309625 2 50.002162233984059 1.3 2 61.80145840095647 22.857234606280599 2 74.046854335716233 3.3687441149638335 2 87.51050448650517 9.488631428495589 2 31.888321418870241 17.041746791938678 2 42.016239117506615 9.8991712245842614 2 53.412345268878397 1.3 2 63.822170530302053 21.95438429594083 2 84.654454772809643 15.137586360174909 2 43.766091082489545 6.6423140219519139 2 59.832806223988996 9.9722442104838507 2 71.661554910972612 3.6504635513370993 2 82.220415045676361 3.6687792938143589 2 23.153453743373941 1.954768563819699 2 47.758312514298311 20.619112298334681 2 52.779249096301342 14.773222010677792 2 72.386487094515488 22.576623409237104 2 78.697797311244173 12.332271805163941 2 1.3 5.1007134326987167 2 20.755438156986749 13.40531263328787 2 49.299369606029934 9.5242994694507637 2 49.470042923039507 20.593202483701205 2 69.230209535648456 3.331528735931431 2 88.799013333771157 1.3 2 27.036314810320345 3.011771438593716 2 37.268869130311892 17.912276389305514 2 54.381507486841805 1.3 2 67.550720115836782 8.8739717954210242 2 81.479204353153534 22.580765470273096 2 45.091698133409857 12.984120230144629 2 55.547533568311167 11.752588650311312 2 79.304035349813859 7.3164754452425305 2 86.518585373066443 6.0593679803036187 2 19.802559120262565 8.3460922008766083 2 44.042314729455896 15.848975747312235 2 48.036990870886733 16.678199368708931 2 77.176172180123899 20.643440290404452 2 73.809723459087152 10.726856598254898 2 47.74462684413659 2.9271605182458114 2 56.832295595976944 15.811177916111758 2 71.136992821030901 13.302362665474433 2 89.011799878590153 13.426125522817472 2 24.162007595212433 5.5089643384837412 2 41.445067978296791 2.5610948276458463 2 55.715503110324605 6.9876351424349092 2 66.356052862713355 15.995918741886907 2 79.010172976145995 19.741652670436928 2 46.633771962365685 2.6872542394129648 2 59.101260030644589 16.04452909795835 2 75.385666146449111 3.3588164808382799 2 86.720382650054361 1.3 2 45.199924442647117 17.648327424925508 2 51.651863548817204 8.7159124778578079 2 68.726233719703217 13.530744451133639 2 83.170747535868685 9.0931809115237208 2 5.7710750179494976 1.3 2 24.742795195514638 15.123059415295351 2 51.178191195809305 6.5591899752290175 2 54.769444830765622 22.274211343391201 2 69.522285494487789 8.6967110863820469 2 86.473346934997821 4.7496587211841481 2 29.846546265152355 1.3 2 40.224003979026413 11.606226865290285 2 57.59232965729759 4.4372450845582545 2 73.055617102650388 8.8310594476112403 2 86.899213602562369 20.905445356053402 2 15.558080758231016 11.55288898724622 2 45.754666959950143 7.8760430568995403 2 60.277299766773368 7.1831930677059859 2 77.318547849251175 4.6684855481153935 2 82.289859373503916 6.3291060738257574 2 41.753466642641143 14.566170215046403 2 50.834506766668547 15.493885394261726 2 77.447085505019274 12.428824953550709 2 79.711490932181533 6.1245520680441388 2 18.987494202122388 13.457903591287003 2 48.372279478191778 1.3 2 58.242035782878077 20.805632034818249 2 74.588740406813073 6.7340637757531141 2 90.769334041999414 11.203169617928401 2 28.234567261311401 13.678837503933693 2 40.047312985462568 6.6670868265353089 2 52.611087082042026 3.4748664309743242 2 67.696337090423086 23.06868405494162 2 81.82180608970242 12.362975686591618 2 8.1347224486141982 8.6832398008572032 2 46.019242482076073 5.0267636798059447 2 57.05480672559419 9.0951902916715568 2 70.016659085949996 1.3 2 79.135067762352918 1.3 2 46.774504784121881 15.526256385273273 2 52.48171240888167 12.515197957199138 2 73.066999475285726 18.188819778318312 2 78.282652019639386 9.040294621939216 2 1.6090738478985949 9.9037471350601631 2 24.062956803756705 13.498087615686719 2 46.994036459337217 10.736018562474126 2 52.355293601140673 23.443598837761051 2 67.951906769792672 1.3 2 87.699038140732526 3.8447229889378267 2 24.327307791324195 1.3 2 37.866119895716729 14.605088276064437 2 53.871118225210424 3.7590675575103871 2 67.017776707448405 11.172846270602022 2 80.576041586964777 19.418363783750653 2 47.455124061119555 14.204997316021545 2 55.787855167316572 8.3744817479716325 2 81.499955804242461 5.5888127826871035 2 84.471786079627776 12.973593663894437 2 25.727863769787046 10.723176853544025 2 37.778698948269131 20.313675633919818 2 53.813995061924956 18.263441975997733 2 75.899524410569029 18.985344023530114 2 75.808961166755267 8.7192267732653495 2 47.634601735983118 6.376969197807127 2 57.55803641173582 12.066018086109985 2 74.42374566480359 17.011057332965411 2 86.037591688952972 14.866684823552577 2 26.347213353429279 8.7412492644875943 2 43.922967058149709 2.9952094434602907 2 54.388029584062203 7.0824521850924009 2 64.234152039426107 15.225924709913693 2 81.110815714250066 16.520196236795961 2 43.167024706343241 1.3 2 58.786112968277585 13.584413310266827 2 72.934575883630743 1.3 2 85.673732772284893 1.3 2 24.063701963201229 7.3267451217682646 2 44.381603443924185 23.063926377868434 2 53.413892369507288 11.135602976380085 2 70.251803317679261 15.657590284776068 2 79.344481228120074 9.7882125473282056 2 27.427395485418614 17.484636037252862 2 50.099330083860004 6.0587001011661394 2 54.343634566703287 20.294004051558574 2 73.005500065769795 6.508690776345138 2 87.533234058719046 7.3090794864119886 2 31.157170454162742 3.2175848879538056 2 39.609020577950275 9.1604620419744638 2 56.762824425893015 2.4135300389446992 2 70.481897564263193 9.4092156373054561 2 90.32827738404626 20.850047121670123 2 11.12836823571152 8.4521059595639123 2 43.981265228427631 8.8353197542559538 2 58.49668481542237 6.2880053941513436 2 77.70845651544937 2.3058991213208184 2 83.367303705961334 5.6786780251559286 2 21.276407595121348 7.9504983661449868 2 43.336401482552603 11.029560736727186 2 48.116578042592693 12.504611017003674 2 75.70579473203955 14.839900097513068 2 76.564401397390824 7.6892951695913814 2 17.064475117026461 7.2335111672676202 2 49.635212259271761 3.0741730804724599 2 59.449818696354441 19.619870804049199 2 75.435500300931352 5.4817914320118879 2 86.016625562563334 9.487972016210529 2 29.971488735652738 14.33723083772828 2 41.294043254549123 8.1445255872085092 2 51.701898607450943 1.3 2 67.793895074255374 18.947146573586483 2 82.542150218458303 15.585593363308618 2 43.169969266072414 7.7743387205047627 2 60.901446589937969 10.803282008146418 2 72.3813920915089 4.8255202257526379 2 82.972132711343363 1.3 2 20.662031741132882 2.7128405347828481 2 45.978443706080512 21.54707225797852 2 54.578295347105488 13.724146500191395 2 71.208170589569107 20.496960371869186 2 80.462120618852111 11.832586829503121 2 4.6326174520375778 6.1131054695699039 2 21.586966819603198 17.864412937384436 2 47.650622139630443 9.5977488594133149 2 52.64909075061022 19.746519567548635 2 70.57138705589152 4.3211650672257091 2 90.844233932891299 1.3 2 29.31889711610075 3.6768269132626092 2 35.816646782266965 19.193772180775454 2 55.425574830993675 1.3 2 68.239400052582283 11.268955594089105 2 84.31930030571192 21.478411310086635 2 43.805371496591647 13.445555502744721 2 57.099244534606363 13.124026958762844 2 80.548834064400921 6.9066171386861983 2 84.79006022114568 8.8450626888229067 2 42.524246300938103 16.713383699417104 2 49.304401454642381 18.829210312938297 2 74.587140918572743 23.472455840632019 2 72.327551563129845 12.762420624600486 2 17.080054868734198 10.532658150962618 2 48.503203355050964 4.7529426216503063 2 55.519363157378507 15.660417346385305 2 73.463652274759127 15.744481922955442 2 87.021248906145289 12.851594352455137 2 24.37458861912571 3.2816670688397607 2 41.232968523158448 1.3 2 56.085458903707398 4.6618633916050412 2 67.820629379998536 15.866423809264207 2 77.86982074538534 16.903831127322761 2 45.740070744314366 1.3 2 61.257622537908269 16.709535633898579 2 75.133492770653504 1.3 2 87.820430729104785 1.3 2 42.820730618503823 19.090999531671255 2 51.359204870847286 10.250588861126081 2 69.527618788448223 11.414167276497864 2 84.35599922024447 11.379084920229689 2 1.3 1.3 2 23.710601903471165 19.156858477625434 2 49.727903917472396 7.3051078881851588 2 57.681848969577317 22.853366693576596 2 71.148927055768553 7.4364134362472702 2 85.298140859852012 3.2441504301877524 2 28.147845513884061 2.3304544271419512 2 39.013887404167569 13.675407243272817 2 57.270940501459748 5.5633395046234675 2 72.442817142768789 10.650848533165297 2 84.208908310034403 18.494986336067857 2 15.031802420569466 15.106393232294602 2 47.459176929629059 8.4060074410552303 2 59.766802742096232 8.7317600352535969 2 76.800840879934256 3.4439533429892482 2 83.587533001783953 6.9892984894120476 2 40.018370937367479 16.942076436592107 2 50.004032889040886 13.126762731112544 2 75.983928907727162 13.55497110009193 2 79.279806466675254 3.7350899961315367 2 3.2488952893014282 4.0054029754236842 2 17.983387288092139 17.414164730501291 2 47.506991143105218 1.3 2 58.801520285944719 18.246234549312479 2 73.691076026866511 7.7535057316921989 2 88.618152196487145 10.1485255941336 2 27.077263077199994 10.145023520605351 2 38.737224867068718 5.5310310455781959 2 52.751693516807883 6.1414234162600447 2 69.373050189394419 20.352258970744202 2 82.158917200618902 13.654659745500497 2 5.8862987217592284 12.902824890678167 2 44.849300087089283 3.6707011607895219 2 56.751156838422062 11.185872721211819 2 71.002960957954642 1.3 2 81.061023130391803 1.3 2 22.832325587261977 3.5436561274203133 2 46.629231925592165 17.470573598478751 2 51.180068200490552 12.981344830219744 2 70.959944183146874 17.190665592713067 2 76.975082901335483 10.639639194931265 2 4.08003398392471 10.548016860285053 2 26.347655893805928 13.881608939101243 2 46.297760382005684 9.5977772179552883 2 48.234015175645439 22.582241529069346 2 69.030935995956412 1.3 2 88.870244205874911 4.4845819667034537 2 27.191188520126079 1.3 2 36.934094025321571 13.220522830274259 2 54.742210342751136 4.7705945359618731 2 67.458907572270505 14.51730828050478 2 82.654965538246941 17.820170403463447 2 48.526040399311086 15.35003783458567 2 55.117907777277992 9.4272271562690779 2 80.883998487529112 3.5323029773078414 2 85.795803182459238 11.670228408220868 2 23.475402174166828 10.538947228544764 2 41.347092215656183 18.082151358062916 2 50.563181426147914 17.938559496227928 2 73.082780459089335 20.462217808386303 2 75.778631031261028 10.768615307245215 2 48.88028384378606 5.9782441450350072 2 58.904829289595902 14.819349540353357 2 73.631278838001393 13.346244966283875 2 86.788007483716228 18.201195735522319 2 27.412829408329692 7.9758673019086013 2 43.024504864816159 5.7529356429923588 2 53.292458287799612 7.3087252259000879 2 66.863353938527084 13.462391326809591 2 79.201381118725209 13.625655578098529 2 44.009782054053034 1.3 2 60.551353144341071 14.013318441732817 2 74.6008413606896 2.183845104941184 2 83.151987319583299 2.7749173400755036 2 22.790816376655851 5.1546637092702552 2 43.685633374431035 21.028398314255885 2 52.583272650306014 9.6598056157359746 2 69.278423257392134 17.032217664332471 2 79.706065683291598 8.6507513191280481 2 28.509883331451107 15.577356646556568 2 51.54285885697896 4.0075295294762361 2 56.764678504445719 17.819375879389835 2 70.816758826349869 5.2629582491327058 2 87.569450348455518 5.2916476349143684 2 30.823535161492327 5.7858317548385498 2 39.829211977524281 7.8505290030477868 2 56.438962517331596 1.3 2 71.336120787709916 11.711911921381306 2 90.592173446937082 18.634275032880041 2 11.868425412229461 10.818986439052463 2 44.170425567264807 10.082091200586669 2 56.746256437319595 7.7158743262716607 2 77.043561235189458 1.3 2 82.84963617543184 4.6431057504639757 2 21.654971846062406 9.8482024835840551 2 42.095546706830035 12.129991579872488 2 50.865921051583705 11.598123032585347 2 78.357539804438346 14.836069423329617 2 75.835805490294305 6.5676614037348147 2 9.149281001893506 6.5137002324773867 2 20.817711502367274 11.644600376777056 2 50.84393605771853 1.3 2 59.693765695797715 22.403150757195874 2 73.65760287841303 4.7125438857610584 2 86.899031739182377 10.862385089381277 2 31.666012054221831 15.067537614639194 2 41.593002873668887 10.96678632198865 2 51.554185286058441 2.6656421739199589 2 64.282089200330731 19.694066558504485 2 83.595663084943894 16.440370778229013 2 44.996459837064926 6.106715968338964 2 58.571795488541667 10.983417816654129 2 71.811242854250011 2.5018520499371237 2 81.829432535838905 2.5738399225856154 2 22.117092067187748 1.3 2 46.553844261699354 19.374615962861384 2 52.995491511898884 16.190910061411284 2 69.984072783650277 22.442955130042346 2 79.133649180872496 11.214653538171545 2 2.7348303075376883 6.2200476887486555 2 22.3986077915016 14.215486536931296 2 48.927172453565476 8.4305320782642852 2 50.60061600499855 21.992690552519026 2 68.775289159364576 4.4552692296532728 2 89.804413404680616 1.3 2 26.5923613056022 4.2380270262319195 2 38.919324840571186 18.264908604132213 2 54.476287309243354 2.3623412356088487 2 68.486055177763333 8.0912118464389895 2 80.432209857235506 24.487028788500123 2 45.676367540522385 11.83132314382715 2 54.262409817905159 12.033641947282609 2 78.257889921847678 6.7709173485840246 2 84.54864044256432 5.4783169874224562 2 18.971303586952821 6.5987072251540848 2 45.144840517042276 14.384218244361399 2 49.585620111414457 16.793861426011901 2 79.061492522780171 21.933175537666116 2 74.716544274702855 11.608887542097724 2 15.577220494062553 8.9703390634394804 2 47.392634320196116 4.0707396230396951 2 57.808107911850428 16.796828607925736 2 71.532871371844834 15.142167446819499 2 90.029522590860623 12.634403692214617 2 25.515153556426345 5.7789412046834814 2 42.799167015534465 2.7060623381134157 2 56.153809379816657 5.8336553220666625 2 66.189904943912282 17.96241667247287 2 79.286010315304537 17.734993548224054 2 46.173585580821438 3.7550382075339184 2 59.985409269372518 17.224057339092685 2 74.800006921621488 4.3899363439702297 2 86.64700787548901 2.3605983498029386 2 43.732966325338261 17.652759462308662 2 50.461188502451776 9.2240714115187448 2 70.096507939320617 13.913719921850145 2 83.695485899305552 10.065406922963724 2 3.3221033054414808 1.3 2 23.066054690372511 16.181637495253916 2 51.697430634673069 5.4458818561544442 2 54.062739594471232 24.414263940859058 2 69.949873749061879 7.5401503736949973 2 85.268284419989641 4.6865275846050638 2 29.957926805106833 2.7238670297311893 2 39.886224893640602 10.419219093912691 2 58.682135988531648 5.0271220293549987 2 71.47314880264895 8.5679289613592307 2 85.412752375870653 19.507992767770745 2 13.750140911057073 12.241266291682088 2 44.622268504685721 7.4619061259742674 2 60.999456229651031 8.2900650038550339 2 77.839282306512445 5.6538719176831593 2 81.629242735708928 7.3569348168537347 2 40.318838279752349 14.148945602962327 2 51.66556244003565 16.647735307457076 2 76.276817562803416 12.040933675960154 2 79.890097322690167 4.9614967682533653 2 6.0230431871944043 4.3473141551248906 2 18.413446890478443 11.782549606335685 2 49.210764005519515 1.3 2 56.320396388187604 21.074956762144762 2 73.925739388047916 5.7604037978471601 2 90.966781755874607 9.9265636611469557 2 27.7178160596116 11.770692343319688 2 38.735066759532565 6.8661601926233571 2 53.266054026182864 2.7278174057213747 2 65.686639450040389 21.9427921446003 2 83.285854877470541 12.331742959414786 2 9.0537624837774917 10.981972164155426 2 47.285442164307632 5.2131469365345993 2 57.865444661921273 10.061706831338707 2 70.252546680960194 2.3215510869385994 2 79.093977089303621 2.6795300872639061 2 45.550617128328362 15.874402351055885 2 53.368778288372532 13.323747225476623 2 74.440778628660851 18.82170385350318 2 77.998940864443355 10.44599685613316 2 1.3 7.6052277202938399 2 24.638922283895717 11.986113075044804 2 47.033906001662359 12.035416608255089 2 50.394034218187436 24.156071719984393 2 67.027050754988693 1.3 2 86.409955374712354 3.4352598382222577 2 25.805821124381371 1.3 2 37.944691299163203 16.324302733561456 2 55.149106418419017 3.6936306317510557 2 66.188287271588393 12.279385155348411 2 81.265935575355186 20.837142336162319 2 46.419605929287371 13.574767190040221 2 54.523732199873514 8.284106898097054 2 81.060524674503284 4.6773519161007844 2 83.572945030365986 14.145162229951806 2 26.294168713880957 12.445269923256433 2 39.584237447813315 21.828850503779403 2 54.198568842394899 16.756881440986337 2 77.601830534552363 18.738617933936329 2 74.901543012045082 7.9209388759196431 2 46.217861940758716 6.2868459272035704 2 59.827189674437321 11.410694536157299 2 75.54965471068526 16.198742182947871 2 85.738175227436955 13.325425720424194 2 25.261227697547817 7.67537699738409 2 42.857838028674593 3.7626241010427681 2 54.887561743511682 6.0215421363300541 2 65.078471270296035 16.304341145684532 2 79.496916934970017 16.19560856426234 2 42.228471744786084 1.3 2 58.945665240507253 12.37827661089729 2 73.130082247920768 2.4803833543701757 2 84.800019780600394 1.3 2 22.614439211250058 6.8507573455290309 2 46.298880972393981 24.137961749711305 2 53.852372595562919 9.7752879407629614 2 69.041038211463345 14.982148456448273 2 80.41873033292336 10.434754523023113 2 27.523958442128567 19.561424883580859 2 50.658777019067124 4.903729001470845 2 55.379297741598158 19.172900398264527 2 72.03387650143992 5.9243693824398092 2 86.136417068633818 7.3090184637659643 2 31.269374561435896 4.4399529811212171 2 38.372397138518473 9.9659971016562743 2 57.783380327913783 3.1680378946925529 2 69.35966424777817 10.01759910811553 2 88.490017065948052 19.412418998297969 2 13.463707065399397 8.7421884599280038 2 42.805175972266177 9.0646569162793664 2 59.040578440376677 7.542183925812572 2 78.142023048427774 1.3 2 85.216800904143511 6.5659282416790283 2 23.079203354263434 8.7422661377604367 2 43.797749774962362 12.076098767830041 2 49.194195274199032 11.762380034079527 2 77.254740822994066 15.470487846167838 2 77.969224684887166 7.9351892211303445 2 48.73538549996713 3.0719009352781907 2 60.727015476916669 20.670980995466703 2 76.159405112210393 4.6880177961258429 2 86.691786151305266 8.4700860744531425 2 30.709815577577924 13.023555765221687 2 40.8534180009826 9.2375467644662645 2 52.532024087765286 1.3 2 65.950336191787613 19.856734724880742 2 81.342476983341271 14.842977318751714 2 42.078812806984047 7.2900229424570915 2 61.848020776428797 11.921021434716502 2 72.795696217580