<?xml version="1.0" ?>
<VTKFile byte_order="LittleEndian" type="UnstructuredGrid" version="0.1">
<UnstructuredGrid>
<Piece NumberOfCells="0" NumberOfPoints="8">
<Points>
<DataArray NumberOfComponents="3" format="ascii" type="Float32">1.4343873257331647 1.3500000000000003 2 9.9299999999999997 1.3500000000000003 2 19.048408351813894 1.3500000000000003 2 38.81471282422612 1.3500000000000003 2 50.017855004719152 1.3500000000000003 2 65.136596450048543 1.3500000000000003 2 67.815624993084086 1.3500000000000003 2 83.489431756865841 1.3500000000000003 2 </DataArray>
</Points>
<Cells>
<DataArray Name="connectivity" format="ascii" type="Int32">0</DataArray>
<DataArray Name="offsets" format="ascii" type="Int32">0</DataArray>
<DataArray Name="types" format="ascii" type="UInt8">1</DataArray>
</Cells>
<PointData>
<DataArray Name="Points" NumberOfComponents="3" format="ascii" type="Float32">1.4343873257331647 1.3500000000000003 2 9.9299999999999997 1.3500000000000003 2 19.048408351813894 1.3500000000000003 2 38.81471282422612 1.3500000000000003 2 50.017855004719152 1.3500000000000003 2 65.136596450048543 1.3500000000000003 2 67.815624993084086 1.3500000000000003 2 83.489431756865841 1.3500000000000003 2 </DataArray>
<DataArray Name="forces" NumberOfComponents="3" format="ascii" type="Float32">-0.00065659238494288508 -5.4041120690548314e-05 0.0 0.0 0.0 0.0 0.00093450667492651495 -0.00010739696351062242 0.0 -0.0064478198024138667 -0.0082115980030025709 0.0 -0.0024872796837236109 -0.0021305965512280391 0.0 -0.012611755949233557 -0.012202786017842616 0.0 -0.0085896527884254462 -0.0010294265008870933 0.0 0.018404891759451349 -0.030144594266913117 0.0 </DataArray>
<DataArray Name="radii" format="ascii" type="Float32">1.3500000000000003 1.3500000000000003 1.3500000000000003 1.3500000000000003 1.3500000000000003 1.3500000000000003 1.3500000000000003 1.3500000000000003 </DataArray>
</PointData>
<CellData/>
</Piece>
</UnstructuredGrid>
</VTKFile>
