<?xml version="1.0" ?>
<VTKFile byte_order="LittleEndian" type="UnstructuredGrid" version="0.1">
<UnstructuredGrid>
<Piece NumberOfCells="0" NumberOfPoints="43">
<Points>
<DataArray NumberOfComponents="3" format="ascii" type="Float32">0 0 0 34.794836419263589 12.042115045071704 2 38.438269280185118 7.6207348213862547 2 81.517084879261304 1 2 36.932218726379418 18.672713301165967 2 37.348858423015336 11.073691567241848 2 81.62596537780631 13.941780682658303 2 33.396280043134112 11.904276455122876 2 38.099468542758778 5.0684074504074887 2 81.135091751583715 12.77572479929594 2 35.266818521305403 4.5857634876495625 2 37.804504413295348 1.4 2 80.452467527032169 1 2 34.225239958852761 13.699295632736609 2 35.857650421448454 9.3620766922342078 2 37.381117788441109 13.62527985718978 2 80.197750945985206 6.9879819944522872 2 41.202043540110758 1 2 35.419888316257115 1.2 2 39.059686312134602 1.4 2 82.604866109647432 7.9284995924511099 2 35.504399172211599 17.320911304028169 2 36.428477798714617 7.475147722727181 2 79.630574761004397 15.971655038516579 2 36.259424778274322 2.8853547139068167 2 81.190696756896742 4.7826446517830066 2 33.267606190391803 16.998906619006068 2 36.075782673011012 5.4395578130936526 2 79.700551267747358 12.060529215785726 2 38.462221564762679 3.4980734150792068 2 38.137679571518213 17.129557218610746 2 36.46465111045309 1 2 80.458496077046405 2.3450861635012683 2 32.903613423700641 14.931309197764314 2 35.653423209297763 13.835432393364439 2 80.053805278865624 3.4038901581468499 2 36.40272387757134 15.496819451994263 2 37.095840155956417 4.3766177736033853 2 81.72300674326813 8.5119170140242755 2 38.731742179934635 19.550082127424741 2 37.426859387992458 2.9192952866529591 2 34.649243632371153 15.268082750767755 2 36.133280063112529 11.765694077894954 2 </DataArray>
</Points>
<Cells>
<DataArray Name="connectivity" format="ascii" type="Int32">0</DataArray>
<DataArray Name="offsets" format="ascii" type="Int32">0</DataArray>
<DataArray Name="types" format="ascii" type="UInt8">1</DataArray>
</Cells>
<PointData>
<DataArray Name="Points" NumberOfComponents="3" format="ascii" type="Float32">0 0 0 34.794836419263589 12.042115045071704 2 38.438269280185118 7.6207348213862547 2 81.517084879261304 1 2 36.932218726379418 18.672713301165967 2 37.348858423015336 11.073691567241848 2 81.62596537780631 13.941780682658303 2 33.396280043134112 11.904276455122876 2 38.099468542758778 5.0684074504074887 2 81.135091751583715 12.77572479929594 2 35.266818521305403 4.5857634876495625 2 37.804504413295348 1.4 2 80.452467527032169 1 2 34.225239958852761 13.699295632736609 2 35.857650421448454 9.3620766922342078 2 37.381117788441109 13.62527985718978 2 80.197750945985206 6.9879819944522872 2 41.202043540110758 1 2 35.419888316257115 1.2 2 39.059686312134602 1.4 2 82.604866109647432 7.9284995924511099 2 35.504399172211599 17.320911304028169 2 36.428477798714617 7.475147722727181 2 79.630574761004397 15.971655038516579 2 36.259424778274322 2.8853547139068167 2 81.190696756896742 4.7826446517830066 2 33.267606190391803 16.998906619006068 2 36.075782673011012 5.4395578130936526 2 79.700551267747358 12.060529215785726 2 38.462221564762679 3.4980734150792068 2 38.137679571518213 17.129557218610746 2 36.46465111045309 1 2 80.458496077046405 2.3450861635012683 2 32.903613423700641 14.931309197764314 2 35.653423209297763 13.835432393364439 2 80.053805278865624 3.4038901581468499 2 36.40272387757134 15.496819451994263 2 37.095840155956417 4.3766177736033853 2 81.72300674326813 8.5119170140242755 2 38.731742179934635 19.550082127424741 2 37.426859387992458 2.9192952866529591 2 34.649243632371153 15.268082750767755 2 36.133280063112529 11.765694077894954 2 </DataArray>
<DataArray Name="forces" NumberOfComponents="3" format="ascii" type="Float32">0 0 0 -0.0058252716920031977 0.33010669433286366 0.0 0.026577189623894437 0.20875279119065687 0.0 0.059583041937149236 -1.521900213245309 0.0 -0.0086993156123388871 0.39817985606570139 0.0 -0.059630831452311267 0.12826645133478162 0.0 0.059854695792657342 0.17053233417121016 0.0 -0.0073459239971276902 0.20669108768131705 0.0 -0.016721836578245663 -0.039616148816227159 0.0 0.011817130746442944 0.14429198091764595 0.0 -0.05691247529043153 0.067193301575699138 0.0 0.011390133173824719 -1.5196428771336072 0.0 0.15947898738186644 -1.3576726462795172 0.0 0.064480037268711057 0.29489874363230639 0.0 -0.011589907478595896 0.0930222924046573 0.0 -0.04470636412943646 0.16692572611012804 0.0 0.03647361879151996 0.067094824132067299 0.0 -0.015060129327481464 -0.94977145888953296 0.0 0.036673600609322343 -1.2028847603760939 0.0 -0.03593554625427231 -1.1727560855992261 0.0 -0.0039476961894095858 0.059989719635667835 0.0 0.15851817837026311 0.23646356371960794 0.0 0.026636870104687516 -0.0019327520964321776 0.0 0.039402323093208735 0.10537602665924922 0.0 -0.10392157135608704 -0.083886250304567089 0.0 0.034434691727043165 0.031769786510302767 0.0 0.11235032316179581 0.21144420704197764 0.0 0.06599095475439376 -0.068716747837614556 0.0 -0.1608930567966334 0.13209690505627991 0.0 0.05765111535497941 -0.035914485336217217 0.0 -0.17191810522901893 0.26559477523980224 0.0 0.076323564625914136 -1.0255666239466918 0.0 -0.088384364599521925 0.026443720515030911 0.0 0.046594455494942372 0.23366151707305091 0.0 0.0075583407336686365 0.22809010874233196 0.0 -0.0045521930807045537 0.034105900306534848 0.0 -0.080009780669926533 0.13195965046881381 0.0 -0.070819876061260806 0.019503380104283072 0.0 -0.001653052763425325 0.09631354794933783 0.0 0.084802272141205892 0.11631499289008999 0.0 -0.084342840304759858 0.13574495113416518 0.0 -0.013227549534610306 0.27423249134574734 0.0 -0.030060848097993108 0.15909360307255882 0.0 </DataArray>
<DataArray Name="radii" format="ascii" type="Float32">0 1.2 1.4 1 1 1.2 1.2 1.2 1 1 1 1.4 1 1 1.2 1.4 1.4 1 1.2 1.4 1.4 1.4 1 1 1.2 1.2 1.4 1.4 1 1 1.2 1 1 1 1 1 1 1 1.2 1.2 1.4 1 1.4 </DataArray>
</PointData>
<CellData/>
</Piece>
</UnstructuredGrid>
</VTKFile>
