<?xml version="1.0" ?>
<VTKFile byte_order="LittleEndian" type="UnstructuredGrid" version="0.1">
<UnstructuredGrid>
<Piece NumberOfCells="0" NumberOfPoints="20">
<Points>
<DataArray NumberOfComponents="3" format="ascii" type="Float32">30.068593709640133 7.632302313386889 2 98.7948721715339 4.890940869692793 2 28.708589644310376 1.20512782846611 2 60.376865920607848 8.3810448302382792 2 91.014062944930089 1.20512782846611 2 97.730087422119112 11.014413658839732 2 27.029566781327315 8.2983988156268556 2 98.7948721715339 2.9526121135436454 2 29.944257271748739 5.2806349461215349 2 98.7948721715339 6.913267913427295 2 32.07966017074466 6.7395458258168439 2 96.794913542400209 3.9400077430825324 2 27.599170527916066 3.4874035512782693 2 58.805799739769647 10.196059744809444 2 89.139750223425011 1.20512782846611 2 96.927718565756606 8.3810221933363636 2 28.124068214692382 6.3269847887190496 2 98.604350405795316 1.20512782846611 2 29.725816710998046 3.1078710395991478 2 98.7948721715339 9.0804822463722257 2 </DataArray>
</Points>
<Cells>
<DataArray Name="connectivity" format="ascii" type="Int32">0</DataArray>
<DataArray Name="offsets" format="ascii" type="Int32">0</DataArray>
<DataArray Name="types" format="ascii" type="UInt8">1</DataArray>
</Cells>
<PointData>
<DataArray Name="Points" NumberOfComponents="3" format="ascii" type="Float32">30.068593709640133 7.632302313386889 2 98.7948721715339 4.890940869692793 2 28.708589644310376 1.20512782846611 2 60.376865920607848 8.3810448302382792 2 91.014062944930089 1.20512782846611 2 97.730087422119112 11.014413658839732 2 27.029566781327315 8.2983988156268556 2 98.7948721715339 2.9526121135436454 2 29.944257271748739 5.2806349461215349 2 98.7948721715339 6.913267913427295 2 32.07966017074466 6.7395458258168439 2 96.794913542400209 3.9400077430825324 2 27.599170527916066 3.4874035512782693 2 58.805799739769647 10.196059744809444 2 89.139750223425011 1.20512782846611 2 96.927718565756606 8.3810221933363636 2 28.124068214692382 6.3269847887190496 2 98.604350405795316 1.20512782846611 2 29.725816710998046 3.1078710395991478 2 98.7948721715339 9.0804822463722257 2 </DataArray>
<DataArray Name="forces" NumberOfComponents="3" format="ascii" type="Float32">-0.13078516902687226 0.17933727982016645 0.0 0.18680091252899378 0.17439011179029237 0.0 -0.014566819471500306 -0.22997168820933017 0.0 0.011134908251803207 -0.0038173176172094613 0.0 -0.0026398663548711232 -0.28730226598723069 0.0 -0.039203973902803009 0.1971285491413087 0.0 -0.081561359612519632 0.14608009740440178 0.0 0.30823681717674356 0.1316542854410373 0.0 0.10437467388552481 0.16515559212066286 0.0 0.22800097816628656 0.19912318925542116 0.0 -0.12331582755380532 0.17673432773612152 0.0 -0.0043748434738577636 0.063591594908127047 0.0 -0.014877188108355643 0.074556364320289947 0.0 0.010416838350804552 0.017189990115737915 0.0 -0.0068856915423751719 -0.046109128847156976 0.0 -0.022113589935820632 0.1163429267092225 0.0 -0.076198321236144506 0.081042297089197982 0.0 0.2631909540387527 -0.80336559154214493 0.0 -0.058211026403189731 0.085923258809599487 0.0 0.498838865151782 0.21400177837138257 0.0 </DataArray>
<DataArray Name="radii" format="ascii" type="Float32">1.20512782846611 1.20512782846611 1.20512782846611 1.20512782846611 1.20512782846611 1.20512782846611 1.20512782846611 1.20512782846611 1.20512782846611 1.20512782846611 1.20512782846611 1.20512782846611 1.20512782846611 1.20512782846611 1.20512782846611 1.20512782846611 1.20512782846611 1.20512782846611 1.20512782846611 1.20512782846611 </DataArray>
</PointData>
<CellData/>
</Piece>
</UnstructuredGrid>
</VTKFile>
