<?xml version="1.0" ?>
<VTKFile byte_order="LittleEndian" type="UnstructuredGrid" version="0.1">
<UnstructuredGrid>
<Piece NumberOfCells="0" NumberOfPoints="43">
<Points>
<DataArray NumberOfComponents="3" format="ascii" type="Float32">0 0 0 34.712635145514461 11.485744661186951 2 38.749900404935993 7.0966143087440612 2 81.362473249076359 1 2 36.821577422172567 18.039661315869559 2 37.508037236350809 10.657713395745327 2 81.607693333749992 14.080050713098913 2 33.234464840121454 11.348936252795308 2 38.120261649934186 4.951736890478875 2 81.217968028609931 12.470425743772104 2 35.411578608915185 4.4698505431000459 2 37.73082623664574 1.4 2 80.312285976745557 1 2 33.911041750597903 12.86768136849323 2 36.089948762814046 9.2827334797219869 2 37.342042928573477 13.118129861130578 2 80.678268437744038 6.8095363773422974 2 40.705051397239913 1 2 35.260162759328175 1.2 2 39.050019231391992 1.4 2 82.18573642235809 7.5746307618764206 2 35.183484596401918 16.785957069640613 2 36.357244182092678 7.3618384125542367 2 79.228958885149609 15.756426681953243 2 36.290859001076747 3.2019841106717268 2 80.940419476724273 4.4227425864283765 2 33.122736891803925 16.486440923410157 2 36.366713038886708 5.3112607821573867 2 80.207781849345281 11.618572290371812 2 38.160563232870579 3.4547516197169594 2 38.565747985641806 16.858312901155209 2 36.412964855222206 1 2 81.024895339658755 2.2776030002571255 2 32.934147784321361 14.381866363472517 2 35.78355480514378 13.256821071379594 2 80.517182965448583 3.3049020614590088 2 36.706826774532388 15.413482573671923 2 37.080114683413733 4.2961227975002032 2 81.212975026296334 8.3174049509601247 2 38.633855176997095 19.395850333418327 2 37.261453985793722 2.5727529957983859 2 34.675940587653798 14.734541896778987 2 36.158845962336805 11.193257726548778 2 </DataArray>
</Points>
<Cells>
<DataArray Name="connectivity" format="ascii" type="Int32">0</DataArray>
<DataArray Name="offsets" format="ascii" type="Int32">0</DataArray>
<DataArray Name="types" format="ascii" type="UInt8">1</DataArray>
</Cells>
<PointData>
<DataArray Name="Points" NumberOfComponents="3" format="ascii" type="Float32">0 0 0 34.712635145514461 11.485744661186951 2 38.749900404935993 7.0966143087440612 2 81.362473249076359 1 2 36.821577422172567 18.039661315869559 2 37.508037236350809 10.657713395745327 2 81.607693333749992 14.080050713098913 2 33.234464840121454 11.348936252795308 2 38.120261649934186 4.951736890478875 2 81.217968028609931 12.470425743772104 2 35.411578608915185 4.4698505431000459 2 37.73082623664574 1.4 2 80.312285976745557 1 2 33.911041750597903 12.86768136849323 2 36.089948762814046 9.2827334797219869 2 37.342042928573477 13.118129861130578 2 80.678268437744038 6.8095363773422974 2 40.705051397239913 1 2 35.260162759328175 1.2 2 39.050019231391992 1.4 2 82.18573642235809 7.5746307618764206 2 35.183484596401918 16.785957069640613 2 36.357244182092678 7.3618384125542367 2 79.228958885149609 15.756426681953243 2 36.290859001076747 3.2019841106717268 2 80.940419476724273 4.4227425864283765 2 33.122736891803925 16.486440923410157 2 36.366713038886708 5.3112607821573867 2 80.207781849345281 11.618572290371812 2 38.160563232870579 3.4547516197169594 2 38.565747985641806 16.858312901155209 2 36.412964855222206 1 2 81.024895339658755 2.2776030002571255 2 32.934147784321361 14.381866363472517 2 35.78355480514378 13.256821071379594 2 80.517182965448583 3.3049020614590088 2 36.706826774532388 15.413482573671923 2 37.080114683413733 4.2961227975002032 2 81.212975026296334 8.3174049509601247 2 38.633855176997095 19.395850333418327 2 37.261453985793722 2.5727529957983859 2 34.675940587653798 14.734541896778987 2 36.158845962336805 11.193257726548778 2 </DataArray>
<DataArray Name="forces" NumberOfComponents="3" format="ascii" type="Float32">0 0 0 0.1680529694338635 0.32085209962081906 0.0 -0.34890037798752904 0.028559737096648774 0.0 -0.058925909875947591 -2.1113295088020458 0.0 -0.059694326921874541 0.54879742573586099 0.0 -0.083236465183155528 0.34339895941282528 0.0 0.041149518761427473 0.26728457541589412 0.0 0.23056467311865225 0.3189745439202249 0.0 -0.046034701873648221 -0.080496698666618238 0.0 -0.01644733396444531 0.22879119390440597 0.0 0.33030854085752992 0.018171763100903293 0.0 0.034505154025340268 -2.031472512690033 0.0 -0.044208731253613909 -2.0115933668453279 0.0 0.18585312778220403 0.26534333866592652 0.0 0.036622823159451923 0.17495304795677502 0.0 -0.15837156469375324 0.34636718748293821 0.0 0.081607482660352698 0.28297115771389036 0.0 -0.41823709320362218 -2.56134641922432 0.0 0.078002840413349844 -1.9473330865699676 0.0 -0.2450035579672738 -1.9478076034219589 0.0 0.04102349730032584 0.15597517900446212 0.0 0.041271663819238136 0.34414196811617126 0.0 0.12610077936213804 0.32841880917365712 0.0 0.13208852887849298 0.42351319490473532 0.0 0.072021588137242576 0.0646633490227293 0.0 -0.04492892001451998 -0.060401915269901699 0.0 0.15337590536564016 0.54557701777259826 0.0 0.19044492901537491 0.21446043086419145 0.0 -0.067697250403314285 0.288405971206672 0.0 -0.16087109092457086 0.062231969939363474 0.0 -0.1841735778423646 0.51387483307435322 0.0 0.08143388032867771 -1.4626337273995866 0.0 0.032378616791366457 -0.036784967188254775 0.0 0.27903803269599547 0.39216946275111442 0.0 -0.0021153552374966744 0.35613731120181813 0.0 0.035790049500322663 -0.04179763241497475 0.0 -0.029682663060929038 0.45996897104549062 0.0 -0.077480397921109639 -0.019220587223080829 0.0 0.025877849443193324 0.19303227443233187 0.0 -0.21530868740704989 0.6597699143339304 0.0 -0.037024755161277956 -0.11119575472597984 0.0 0.11279822839455661 0.37957094084732024 0.0 -0.070970736018789726 0.22796202065054028 0.0 </DataArray>
<DataArray Name="radii" format="ascii" type="Float32">0 1.2 1.4 1 1.5999999999999999 1.2 1.2 1.2 1 1 1 1.4 1 1 1.2 1.4 1.4 1 1.2 1.4 1.4 1.4 1 1 1.2 1.2 1.4 1.4 1 1 1.2 1 1 1 1.5999999999999999 1 1 1 1.2 1.2 1.4 1.5999999999999999 1.4 </DataArray>
</PointData>
<CellData/>
</Piece>
</UnstructuredGrid>
</VTKFile>
