<?xml version="1.0" ?>
<VTKFile byte_order="LittleEndian" type="UnstructuredGrid" version="0.1">
<UnstructuredGrid>
<Piece NumberOfCells="0" NumberOfPoints="11">
<Points>
<DataArray NumberOfComponents="3" format="ascii" type="Float32">31.107097810633242 6.8770046841701156 2 97.49645770362406 4.15653549689047 2 28.659515757540543 1.518365918906393 2 60.100507779568154 8.6646888623539553 2 90.672051186651586 1.518365918906393 2 97.324842062557806 9.5757863892794717 2 28.082151104876914 6.7424012835172249 2 98.4816340810936 1.518365918906393 2 29.72524972059648 4.2298250075380475 2 89.062726994783944 5.1934522212413565 2 98.4816340810936 6.8555297564937634 2 </DataArray>
</Points>
<Cells>
<DataArray Name="connectivity" format="ascii" type="Int32">0</DataArray>
<DataArray Name="offsets" format="ascii" type="Int32">0</DataArray>
<DataArray Name="types" format="ascii" type="UInt8">1</DataArray>
</Cells>
<PointData>
<DataArray Name="Points" NumberOfComponents="3" format="ascii" type="Float32">31.107097810633242 6.8770046841701156 2 97.49645770362406 4.15653549689047 2 28.659515757540543 1.518365918906393 2 60.100507779568154 8.6646888623539553 2 90.672051186651586 1.518365918906393 2 97.324842062557806 9.5757863892794717 2 28.082151104876914 6.7424012835172249 2 98.4816340810936 1.518365918906393 2 29.72524972059648 4.2298250075380475 2 89.062726994783944 5.1934522212413565 2 98.4816340810936 6.8555297564937634 2 </DataArray>
<DataArray Name="forces" NumberOfComponents="3" format="ascii" type="Float32">-0.010123879489308148 0.045741909355077465 0.0 0.012877784591255083 0.052324582161795558 0.0 -0.0028166648004487593 -0.1167173538755605 0.0 -0.01134051894597686 0.10538618891584824 0.0 -0.025504383041462894 -0.36480051817042636 0.0 -0.027775277846363643 0.076126269538545135 0.0 -0.016045742222983259 0.042463709301483195 0.0 0.53973830759651242 -0.21042334325318526 0.0 -0.017504178190093124 0.041847600473170349 0.0 -0.012759951303981859 0.13373193323344712 0.0 0.33906329223247395 0.077029017772042463 0.0 </DataArray>
<DataArray Name="radii" format="ascii" type="Float32">1.518365918906393 1.518365918906393 1.518365918906393 1.518365918906393 1.518365918906393 1.518365918906393 1.518365918906393 1.518365918906393 1.518365918906393 1.518365918906393 1.518365918906393 </DataArray>
</PointData>
<CellData/>
</Piece>
</UnstructuredGrid>
</VTKFile>
