<?xml version="1.0" ?>
<VTKFile byte_order="LittleEndian" type="UnstructuredGrid" version="0.1">
<UnstructuredGrid>
<Piece NumberOfCells="0" NumberOfPoints="21">
<Points>
<DataArray NumberOfComponents="3" format="ascii" type="Float32">0 0 0 33.353304076425161 7.566604887411887 2 42.191803791737222 6.2872755995885541 2 82.433889420803737 1 2 37.741755429504614 8.305869410646384 2 80.285850170540357 9.7518950893198735 2 31.370333533081805 8.2188025733360845 2 40.791370047315326 4.9124618940180103 2 82.43042178969489 8.9125588093819115 2 33.09476359009993 3.4162371134150891 2 39.470611080436647 9.8409221611808722 2 42.199189271089359 1 2 34.003120106365898 1.2 2 40.100389526900265 1.4 2 81.820766672087458 5.6131753675638274 2 37.090452372815342 5.4590261811616481 2 78.982465368434774 11.963153300410088 2 81.809229594373619 3.0699264529857984 2 30.899552320180263 11.990680454755665 2 34.50177755628804 5.2619394917808302 2 39.043786956052436 3.8011837100260615 2 </DataArray>
</Points>
<Cells>
<DataArray Name="connectivity" format="ascii" type="Int32">0</DataArray>
<DataArray Name="offsets" format="ascii" type="Int32">0</DataArray>
<DataArray Name="types" format="ascii" type="UInt8">1</DataArray>
</Cells>
<PointData>
<DataArray Name="Points" NumberOfComponents="3" format="ascii" type="Float32">0 0 0 33.353304076425161 7.566604887411887 2 42.191803791737222 6.2872755995885541 2 82.433889420803737 1 2 37.741755429504614 8.305869410646384 2 80.285850170540357 9.7518950893198735 2 31.370333533081805 8.2188025733360845 2 40.791370047315326 4.9124618940180103 2 82.43042178969489 8.9125588093819115 2 33.09476359009993 3.4162371134150891 2 39.470611080436647 9.8409221611808722 2 42.199189271089359 1 2 34.003120106365898 1.2 2 40.100389526900265 1.4 2 81.820766672087458 5.6131753675638274 2 37.090452372815342 5.4590261811616481 2 78.982465368434774 11.963153300410088 2 81.809229594373619 3.0699264529857984 2 30.899552320180263 11.990680454755665 2 34.50177755628804 5.2619394917808302 2 39.043786956052436 3.8011837100260615 2 </DataArray>
<DataArray Name="forces" NumberOfComponents="3" format="ascii" type="Float32">0 0 0 -0.0095214401545396041 0.14246050103259492 0.0 -0.025098204353783904 0.16389354476020834 0.0 -0.03091622661273119 -0.39739431022775445 0.0 -0.043143930977994738 0.16605949968907097 0.0 0.017692763096477174 0.24446270516574464 0.0 0.039239923012937911 0.14768603232194577 0.0 -0.0054886079388667408 0.13212299960545887 0.0 0.088281011616518648 0.30846907901394838 0.0 0.031322606465769592 0.10589314104673875 0.0 -0.09310819611273552 0.18798541029634708 0.0 -0.031166901442996955 -0.54305118199436153 0.0 0.17789134837302906 -0.53006922439212634 0.0 -0.036034610517866883 -0.61135713002373393 0.0 -0.045263424884120385 -0.021410427347204219 0.0 0.0052697673950295454 0.18160525514026599 0.0 0.04405621646828653 0.3076438212843593 0.0 0.08527932323592835 -0.027449524070405518 0.0 0.073237732185332735 0.29365834090266335 0.0 0.0098658773250164811 0.15495452695958539 0.0 -0.025881477014054754 0.076179148994780899 0.0 </DataArray>
<DataArray Name="radii" format="ascii" type="Float32">0 1.2 1.4 1 1.2 1.2 1.2 1 1 1 1.4 1 1.2 1.4 1.4 1.5999999999999999 1.5999999999999999 1.2 1.4 1.4 1.5999999999999999 </DataArray>
</PointData>
<CellData/>
</Piece>
</UnstructuredGrid>
</VTKFile>
