<?xml version="1.0" ?>
<VTKFile byte_order="LittleEndian" type="UnstructuredGrid" version="0.1">
<UnstructuredGrid>
<Piece NumberOfCells="0" NumberOfPoints="8">
<Points>
<DataArray NumberOfComponents="3" format="ascii" type="Float32">1.9300000000000002 1.1 2 9.9299999999999997 1.1 2 18.137648443462385 1.1 2 39.777352139282797 1.1 2 51.102212809453505 1.1 2 65.930000000000007 1.1 2 69.340803717542187 1.1 2 82.137648443462382 1.1 2 </DataArray>
</Points>
<Cells>
<DataArray Name="connectivity" format="ascii" type="Int32">0</DataArray>
<DataArray Name="offsets" format="ascii" type="Int32">0</DataArray>
<DataArray Name="types" format="ascii" type="UInt8">1</DataArray>
</Cells>
<PointData>
<DataArray Name="Points" NumberOfComponents="3" format="ascii" type="Float32">1.9300000000000002 1.1 2 9.9299999999999997 1.1 2 18.137648443462385 1.1 2 39.777352139282797 1.1 2 51.102212809453505 1.1 2 65.930000000000007 1.1 2 69.340803717542187 1.1 2 82.137648443462382 1.1 2 </DataArray>
<DataArray Name="forces" NumberOfComponents="3" format="ascii" type="Float32">0.0 0.0 0.0 0.0 0.0 0.0 0.0 0.0 0.0 0.0 0.0 0.0 0.0 0.0 0.0 0.0 0.0 0.0 0.0 0.0 0.0 0.0 0.0 0.0 </DataArray>
<DataArray Name="radii" format="ascii" type="Float32">1.1 1.1 1.1 1.1 1.1 1.1 1.1 1.1 </DataArray>
</PointData>
<CellData/>
</Piece>
</UnstructuredGrid>
</VTKFile>
