<?xml version="1.0" ?>
<VTKFile byte_order="LittleEndian" type="UnstructuredGrid" version="0.1">
<UnstructuredGrid>
<Piece NumberOfCells="0" NumberOfPoints="69">
<Points>
<DataArray NumberOfComponents="3" format="ascii" type="Float32">0 0 0 7.998303383828107 1.143365918906393 2 16.470011645231164 1.143365918906393 2 27.125040651900058 4.0231846490731149 2 32.132478016703928 1.143365918906393 2 37.102063744274986 5.8459820214282781 2 43.080851389728082 1.143365918906393 2 45.346068048129275 4.7791351749074593 2 53.709019160267793 1.143365918906393 2 54.844564656120831 3.0364898016414505 2 62.296210268780897 4.2724663050262972 2 71.855970991664989 1.143365918906393 2 74.038291924523961 5.3075342786548987 2 75.198867707917046 3.1753413132882566 2 80.087700894638317 4.4343680618036663 2 88.355608935905593 1.9935564074000189 2 92.751592505688237 4.6353010577240008 2 95.019435305613214 3.1090647209485129 2 3.8029708323846831 1.5859134347020203 2 13.675905541256865 1.143365918906393 2 24.615488009092712 1.5122530017272715 2 33.888130813416566 5.3137052504205613 2 36.364523028134961 1.5504683112935287 2 43.757716589747773 3.2305029248472756 2 47.406979075088188 1.143365918906393 2 52.837365630606591 4.0628894618749642 2 57.800186689065228 5.3961547928233751 2 62.439889718734236 2.0309328101614401 2 71.762440953601214 5.1170335496602792 2 72.921880799923358 3.150609344605265 2 78.439633594226905 1.143365918906393 2 81.891094110620188 3.0517546115053031 2 84.395118296541384 4.1139869984051192 2 93.90320556451654 1.143365918906393 2 94.676134661349792 5.718397730881466 2 7.6543454026671167 3.4315694886311054 2 15.848021733347116 3.3411569732112936 2 26.843559901239917 1.7685233955675566 2 32.851088033709061 3.2897407277062518 2 37.595312105528286 3.6392778014277782 2 41.004134982417646 1.143365918906393 2 46.995318925382612 6.3127654698894551 2 51.491339333035306 1.143365918906393 2 56.022803569417199 1.143365918906393 2 64.555126715849681 3.9281900850616833 2 69.681409867623586 1.143365918906393 2 74.534344546973898 7.539338784426044 2 76.324938267014332 5.1586768977246109 2 78.049621693646245 3.399735346639869 2 86.292132799369341 1.143365918906393 2 90.732172157435713 5.6342409033482452 2 96.151140520603647 1.143365918906393 2 5.946791187623794 1.9736371199039824 2 12.893363919935416 3.2894407729529043 2 22.386164795130682 1.143365918906393 2 35.315637527604821 3.5450498508696615 2 34.285978602855678 1.143365918906393 2 45.221111047344102 1.143365918906393 2 47.153637318131835 3.4344605041960139 2 55.430562218138029 5.1881190602829346 2 57.096227100596813 3.2241493712699469 2 60.449358031825014 1.143365918906393 2 70.386789167281592 3.3023395477884367 2 74.038859408378514 1.143365918906393 2 76.231810525253096 1.143365918906393 2 80.67628196796386 1.143365918906393 2 86.571264548391852 3.4119652311301358 2 92.157680956674369 2.5124120090888926 2 96.623288019777931 4.7446421911427965 2 </DataArray>
</Points>
<Cells>
<DataArray Name="connectivity" format="ascii" type="Int32">0</DataArray>
<DataArray Name="offsets" format="ascii" type="Int32">0</DataArray>
<DataArray Name="types" format="ascii" type="UInt8">1</DataArray>
</Cells>
<PointData>
<DataArray Name="Points" NumberOfComponents="3" format="ascii" type="Float32">0 0 0 7.998303383828107 1.143365918906393 2 16.470011645231164 1.143365918906393 2 27.125040651900058 4.0231846490731149 2 32.132478016703928 1.143365918906393 2 37.102063744274986 5.8459820214282781 2 43.080851389728082 1.143365918906393 2 45.346068048129275 4.7791351749074593 2 53.709019160267793 1.143365918906393 2 54.844564656120831 3.0364898016414505 2 62.296210268780897 4.2724663050262972 2 71.855970991664989 1.143365918906393 2 74.038291924523961 5.3075342786548987 2 75.198867707917046 3.1753413132882566 2 80.087700894638317 4.4343680618036663 2 88.355608935905593 1.9935564074000189 2 92.751592505688237 4.6353010577240008 2 95.019435305613214 3.1090647209485129 2 3.8029708323846831 1.5859134347020203 2 13.675905541256865 1.143365918906393 2 24.615488009092712 1.5122530017272715 2 33.888130813416566 5.3137052504205613 2 36.364523028134961 1.5504683112935287 2 43.757716589747773 3.2305029248472756 2 47.406979075088188 1.143365918906393 2 52.837365630606591 4.0628894618749642 2 57.800186689065228 5.3961547928233751 2 62.439889718734236 2.0309328101614401 2 71.762440953601214 5.1170335496602792 2 72.921880799923358 3.150609344605265 2 78.439633594226905 1.143365918906393 2 81.891094110620188 3.0517546115053031 2 84.395118296541384 4.1139869984051192 2 93.90320556451654 1.143365918906393 2 94.676134661349792 5.718397730881466 2 7.6543454026671167 3.4315694886311054 2 15.848021733347116 3.3411569732112936 2 26.843559901239917 1.7685233955675566 2 32.851088033709061 3.2897407277062518 2 37.595312105528286 3.6392778014277782 2 41.004134982417646 1.143365918906393 2 46.995318925382612 6.3127654698894551 2 51.491339333035306 1.143365918906393 2 56.022803569417199 1.143365918906393 2 64.555126715849681 3.9281900850616833 2 69.681409867623586 1.143365918906393 2 74.534344546973898 7.539338784426044 2 76.324938267014332 5.1586768977246109 2 78.049621693646245 3.399735346639869 2 86.292132799369341 1.143365918906393 2 90.732172157435713 5.6342409033482452 2 96.151140520603647 1.143365918906393 2 5.946791187623794 1.9736371199039824 2 12.893363919935416 3.2894407729529043 2 22.386164795130682 1.143365918906393 2 35.315637527604821 3.5450498508696615 2 34.285978602855678 1.143365918906393 2 45.221111047344102 1.143365918906393 2 47.153637318131835 3.4344605041960139 2 55.430562218138029 5.1881190602829346 2 57.096227100596813 3.2241493712699469 2 60.449358031825014 1.143365918906393 2 70.386789167281592 3.3023395477884367 2 74.038859408378514 1.143365918906393 2 76.231810525253096 1.143365918906393 2 80.67628196796386 1.143365918906393 2 86.571264548391852 3.4119652311301358 2 92.157680956674369 2.5124120090888926 2 96.623288019777931 4.7446421911427965 2 </DataArray>
<DataArray Name="forces" NumberOfComponents="3" format="ascii" type="Float32">0 0 0 0.026004334110170148 -0.031447242811192017 0.0 0.00085768353506356088 -0.0030360921699615997 0.0 -0.023843180703639631 0.013348621984991763 0.0 -0.048395078110769651 -0.14495053711662403 0.0 -0.0072095685338842818 0.031957095414977085 0.0 0.03741577949144187 -0.10132337927783412 0.0 -0.0058776893050840745 0.053283152543056551 0.0 0.033954665471984093 -0.081406431708489768 0.0 -0.0037513267688546563 0.054435295751550795 0.0 0.0053099922377137978 0.038067248899430924 0.0 0.0017154149436658106 -0.015010191433225227 0.0 0.0030474406080622705 -0.00022949266267659196 0.0 0.0031456790104002295 0.0038042910889281509 0.0 -0.0029425811583511309 0.0022988423540801104 0.0 -0.016490986550314883 0.028641926252317793 0.0 -0.018590728281584177 0.031989247724433539 0.0 0.006268423426401425 0.053479495631585855 0.0 0.0089230217953987778 -0.010707573785736347 0.0 0.0010044480128522026 -0.0027594975182165748 0.0 -0.022301330144681303 -0.00069251216460385241 0.0 0.0021927525501647723 0.028538028629003016 0.0 -0.01881511704267691 0.018449458873986385 0.0 -0.022001049172700224 0.045215447612469359 0.0 0.053381174037605603 -0.034230397911172654 0.0 -0.036207811337969034 0.019168662626735659 0.0 0.0015853959402382612 0.0048407361493670361 0.0 -0.0075936205753224933 0.033872106683845771 0.0 0.0013544585033138153 0.015193070032408273 0.0 -0.0018212742246160765 0.0094999927617752354 0.0 0.030793867918674778 0.0 0.0 0.0033133119506666489 0.035428717358229028 0.0 -0.0002863189714365951 9.2552339190698062e-05 0.0 0.046558262650226293 -0.091008357996564343 0.0 -0.032578527024400658 0.10087936561297399 0.0 0.024810060493423484 0.021155481562201029 0.0 -0.00085768353506356088 0.0030360921699615997 0.0 -0.0035687165253799058 0.0052453795055323327 0.0 0.008810368198300363 0.010526608352365852 0.0 -0.011241301115276065 0.020386988985227214 0.0 0.016632191426930842 -0.027049888525439984 0.0 0.028830202798061769 0.027520115955682645 0.0 0.011059858388795224 -0.063385098286299013 0.0 -0.040952621708390924 -0.06148474096964323 0.0 0.0022574002143603512 0.0059485054403382431 0.0 -0.007140145327434364 -0.063442338344474214 0.0 0.00011362769695183827 0.00050902946583035729 0.0 0.0042484146879075198 0.0074781703832771983 0.0 0.0 0.0 0.0 -0.018140756916491432 -0.029627260746968066 0.0 -0.035815394155143926 0.017994116632941207 0.0 -0.065210546469761169 -0.11059237154831347 0.0 0.035912460285479196 0.02786455360383416 0.0 -0.0010044480128522026 0.0027594975182165748 0.0 -0.034621846380142277 -0.0057875819310254147 0.0 -0.014374438606021372 0.018240173016793586 0.0 -0.032168718753089187 -0.033817101978451371 0.0 0.044848069096353527 0.0 0.0 -0.028471815380204858 0.0015367721758449658 0.0 0.01756727856599229 0.06592099449981427 0.0 0.010542309550394133 -0.00051074990995892376 0.0 -0.0076971426381928915 -0.063570537244230146 0.0 -0.00077680076308765753 0.011078605294791825 0.0 0.0085498118776001775 0.0 0.0 0.017574670951027771 -0.011118631944762754 0.0 0.041162845799729231 -0.024439035834968498 0.0 0.00051799170015759193 0.0018819719209453706 0.0 0.010041591896393032 0.00067203141975579958 0.0 -0.010104583948342093 0.087031270643952011 0.0 </DataArray>
<DataArray Name="radii" format="ascii" type="Float32">0 1.143365918906393 1.143365918906393 1.143365918906393 1.143365918906393 1.143365918906393 1.143365918906393 1.143365918906393 1.143365918906393 1.143365918906393 1.143365918906393 1.143365918906393 1.143365918906393 1.143365918906393 1.143365918906393 1.143365918906393 1.143365918906393 1.143365918906393 1.143365918906393 1.143365918906393 1.143365918906393 1.143365918906393 1.143365918906393 1.143365918906393 1.143365918906393 1.143365918906393 1.143365918906393 1.143365918906393 1.143365918906393 1.143365918906393 1.143365918906393 1.143365918906393 1.143365918906393 1.143365918906393 1.143365918906393 1.143365918906393 1.143365918906393 1.143365918906393 1.143365918906393 1.143365918906393 1.143365918906393 1.143365918906393 1.143365918906393 1.143365918906393 1.143365918906393 1.143365918906393 1.143365918906393 1.143365918906393 1.143365918906393 1.143365918906393 1.143365918906393 1.143365918906393 1.143365918906393 1.143365918906393 1.143365918906393 1.143365918906393 1.143365918906393 1.143365918906393 1.143365918906393 1.143365918906393 1.143365918906393 1.143365918906393 1.143365918906393 1.143365918906393 1.143365918906393 1.143365918906393 1.143365918906393 1.143365918906393 1.143365918906393 </DataArray>
</PointData>
<CellData/>
</Piece>
</UnstructuredGrid>
</VTKFile>
