<?xml version="1.0" ?>
<VTKFile byte_order="LittleEndian" type="UnstructuredGrid" version="0.1">
<UnstructuredGrid>
<Piece NumberOfCells="0" NumberOfPoints="137">
<Points>
<DataArray NumberOfComponents="3" format="ascii" type="Float32">0 0 0 6.7307730886357158 1.33012782846611 2 16.243398056914984 1.33012782846611 2 25.638602785975756 6.0823335597077808 2 32.795141958856838 1.33012782846611 2 37.042955322090158 9.7339823538197745 2 43.699955053205947 3.390978911628113 2 44.275619559281402 8.637184587904283 2 53.560865094564221 1.33012782846611 2 54.430698846868346 5.8475025879561988 2 61.461813238168538 6.218187476663033 2 71.793541613585262 1.33012782846611 2 72.973113475363832 9.4236415270276872 2 75.953393154142944 5.6149430983411159 2 80.290032946086683 8.036517129992216 2 87.989501803018854 4.4061429148483588 2 90.942778257951218 8.3642221540184405 2 94.663843540844141 5.6703131431160685 2 4.2586076793986694 1.33012782846611 2 14.034241829300198 1.33012782846611 2 23.687185068534081 1.33012782846611 2 33.441640154214177 9.861443011291259 2 37.531441470694183 1.33012782846611 2 41.871955181734677 7.4097940829347468 2 48.557578261912795 1.33012782846611 2 51.009301707382519 8.0613425893706037 2 58.112209166899468 8.1533270733180441 2 62.038656555765492 3.6990778530352384 2 70.161708197685584 9.5152502347189447 2 72.570164955946552 5.2835950819204953 2 79.70692503646228 1.33012782846611 2 82.757547512350413 3.6843516668250262 2 84.889065873908962 8.2609519847737705 2 93.064162300415262 1.33012782846611 2 92.694995072355937 10.332378512931317 2 6.4731593209488762 6.6954812764870191 2 16.918224809068235 6.3535657061670729 2 24.859688499740809 3.5444517938003006 2 32.983006578941996 5.8249248940432867 2 39.655815587220673 8.5838377543527855 2 41.17125753772995 3.0447285101347576 2 48.604494844523515 7.6187760153104227 2 52.261967236882782 3.4513658475896687 2 56.051481893986335 1.33012782846611 2 65.30874360875228 8.4308869618653688 2 66.443324178292542 3.031714979268838 2 75.673458222829368 10.431202783300751 2 78.148229197577422 9.4271236879674465 2 78.577875797339487 4.3848058753042576 2 85.3030832094841 1.33012782846611 2 88.413398628560685 8.09363534345683 2 95.018970632735289 1.33012782846611 2 6.1280918807940807 4.0051308530594936 2 14.131149101815806 6.7447824233558036 2 21.714624375401591 3.897410309129651 2 35.370961048936316 5.5510223205157629 2 33.972017185026196 3.5161335492645667 2 45.168239529387151 1.33012782846611 2 45.65196514282794 4.5192399141995097 2 53.42164501835726 8.4023594007915907 2 57.382558889397245 3.4003509129012306 2 60.87258150445259 1.33012782846611 2 68.302814581014786 4.0117959055754699 2 72.494728477652259 3.1776943100844166 2 75.845935986516224 1.33012782846611 2 81.696034484725999 1.33012782846611 2 86.579946008243994 6.35241795567884 2 89.935999752626884 6.0559200413454395 2 94.62845509897592 8.6512450418296947 2 8.3352865148867643 3.109306839800849 2 15.018839770071752 3.6790358325197889 2 23.309134315599213 5.5600386924460823 2 30.584125981577259 1.33012782846611 2 37.502680032246474 7.2953254305516841 2 42.630447791761526 1.33012782846611 2 41.966230835574848 9.8990389312655314 2 54.853190625916298 3.4826153648635265 2 56.73207971076156 5.5867851071645083 2 62.882575088807201 8.4420313461503493 2 69.816548818498035 1.33012782846611 2 73.944724210602104 7.1038805916805314 2 74.598074083733621 3.6821699940032455 2 82.044335521835421 9.7773286200940888 2 89.956931031278302 3.5904683594002993 2 92.953368564585176 7.3197779080938945 2 92.249460308832866 5.2549778749399998 2 2.8925856829367467 3.2811429764726681 2 11.980814266525982 1.9434511947881925 2 21.293055168657261 1.33012782846611 2 35.047303556730697 7.9392100968151693 2 36.320494422703 3.2531000689923459 2 43.948562087809442 6.0876401594297187 2 49.667053187094517 3.3642754744077985 2 52.305915363907602 5.8810026897016217 2 56.306418476073446 10.290353210777212 2 64.242475678866356 3.5582258172292347 2 71.458031225350325 7.391988541892716 2 70.452238710652324 3.8636937113075933 2 77.875049271206819 1.33012782846611 2 80.690765442998767 5.6455108648328212 2 82.742248780036306 6.8941689669048509 2 94.267502004910071 3.4826434554033288 2 95.204059121893934 11.206539502380647 2 8.7952196798001534 5.6287794508861371 2 17.393652321932841 3.7808636172574674 2 26.071833809884463 1.33012782846611 2 31.696742830830221 3.6484680093511463 2 39.746406893388276 5.938940507045074 2 41.897910795404279 5.0104728993130347 2 46.801220396633397 9.4733270414068826 2 51.045467975059715 1.33012782846611 2 58.520103437668659 1.33012782846611 2 63.8893940515457 6.0854896685000854 2 67.747837152713785 1.33012782846611 2 73.556672334877987 11.919675302051587 2 76.100549643920985 8.0270314767967896 2 78.213713178360223 6.7189070827624358 2 87.22559517755073 1.33012782846611 2 90.03100492199529 10.665355389054231 2 96.845680281901394 1.33012782846611 2 4.1188189282638632 5.5421393187856491 2 12.778523911536531 4.5592365102453805 2 19.637748120581044 3.0912634303724764 2 37.605915906632376 5.0628751969902925 2 35.080583056428537 1.33012782846611 2 47.068064982833818 2.8162380417186803 2 46.232262909376004 6.9679573731761719 2 55.762790263089222 7.8555768532388335 2 59.08916294180991 5.8360143185804123 2 59.769866473652762 3.52516324892941 2 69.439109077420753 6.1814643223200028 2 73.923597946074096 1.33012782846611 2 76.799622073086553 3.3875161793389799 2 80.500004766837378 3.3570062867916475 2 85.919609232075913 3.4995868399265291 2 92.064951182159248 3.2620416304246946 2 96.581067814538827 6.609871163397103 2 </DataArray>
</Points>
<Cells>
<DataArray Name="connectivity" format="ascii" type="Int32">0</DataArray>
<DataArray Name="offsets" format="ascii" type="Int32">0</DataArray>
<DataArray Name="types" format="ascii" type="UInt8">1</DataArray>
</Cells>
<PointData>
<DataArray Name="Points" NumberOfComponents="3" format="ascii" type="Float32">0 0 0 6.7307730886357158 1.33012782846611 2 16.243398056914984 1.33012782846611 2 25.638602785975756 6.0823335597077808 2 32.795141958856838 1.33012782846611 2 37.042955322090158 9.7339823538197745 2 43.699955053205947 3.390978911628113 2 44.275619559281402 8.637184587904283 2 53.560865094564221 1.33012782846611 2 54.430698846868346 5.8475025879561988 2 61.461813238168538 6.218187476663033 2 71.793541613585262 1.33012782846611 2 72.973113475363832 9.4236415270276872 2 75.953393154142944 5.6149430983411159 2 80.290032946086683 8.036517129992216 2 87.989501803018854 4.4061429148483588 2 90.942778257951218 8.3642221540184405 2 94.663843540844141 5.6703131431160685 2 4.2586076793986694 1.33012782846611 2 14.034241829300198 1.33012782846611 2 23.687185068534081 1.33012782846611 2 33.441640154214177 9.861443011291259 2 37.531441470694183 1.33012782846611 2 41.871955181734677 7.4097940829347468 2 48.557578261912795 1.33012782846611 2 51.009301707382519 8.0613425893706037 2 58.112209166899468 8.1533270733180441 2 62.038656555765492 3.6990778530352384 2 70.161708197685584 9.5152502347189447 2 72.570164955946552 5.2835950819204953 2 79.70692503646228 1.33012782846611 2 82.757547512350413 3.6843516668250262 2 84.889065873908962 8.2609519847737705 2 93.064162300415262 1.33012782846611 2 92.694995072355937 10.332378512931317 2 6.4731593209488762 6.6954812764870191 2 16.918224809068235 6.3535657061670729 2 24.859688499740809 3.5444517938003006 2 32.983006578941996 5.8249248940432867 2 39.655815587220673 8.5838377543527855 2 41.17125753772995 3.0447285101347576 2 48.604494844523515 7.6187760153104227 2 52.261967236882782 3.4513658475896687 2 56.051481893986335 1.33012782846611 2 65.30874360875228 8.4308869618653688 2 66.443324178292542 3.031714979268838 2 75.673458222829368 10.431202783300751 2 78.148229197577422 9.4271236879674465 2 78.577875797339487 4.3848058753042576 2 85.3030832094841 1.33012782846611 2 88.413398628560685 8.09363534345683 2 95.018970632735289 1.33012782846611 2 6.1280918807940807 4.0051308530594936 2 14.131149101815806 6.7447824233558036 2 21.714624375401591 3.897410309129651 2 35.370961048936316 5.5510223205157629 2 33.972017185026196 3.5161335492645667 2 45.168239529387151 1.33012782846611 2 45.65196514282794 4.5192399141995097 2 53.42164501835726 8.4023594007915907 2 57.382558889397245 3.4003509129012306 2 60.87258150445259 1.33012782846611 2 68.302814581014786 4.0117959055754699 2 72.494728477652259 3.1776943100844166 2 75.845935986516224 1.33012782846611 2 81.696034484725999 1.33012782846611 2 86.579946008243994 6.35241795567884 2 89.935999752626884 6.0559200413454395 2 94.62845509897592 8.6512450418296947 2 8.3352865148867643 3.109306839800849 2 15.018839770071752 3.6790358325197889 2 23.309134315599213 5.5600386924460823 2 30.584125981577259 1.33012782846611 2 37.502680032246474 7.2953254305516841 2 42.630447791761526 1.33012782846611 2 41.966230835574848 9.8990389312655314 2 54.853190625916298 3.4826153648635265 2 56.73207971076156 5.5867851071645083 2 62.882575088807201 8.4420313461503493 2 69.816548818498035 1.33012782846611 2 73.944724210602104 7.1038805916805314 2 74.598074083733621 3.6821699940032455 2 82.044335521835421 9.7773286200940888 2 89.956931031278302 3.5904683594002993 2 92.953368564585176 7.3197779080938945 2 92.249460308832866 5.2549778749399998 2 2.8925856829367467 3.2811429764726681 2 11.980814266525982 1.9434511947881925 2 21.293055168657261 1.33012782846611 2 35.047303556730697 7.9392100968151693 2 36.320494422703 3.2531000689923459 2 43.948562087809442 6.0876401594297187 2 49.667053187094517 3.3642754744077985 2 52.305915363907602 5.8810026897016217 2 56.306418476073446 10.290353210777212 2 64.242475678866356 3.5582258172292347 2 71.458031225350325 7.391988541892716 2 70.452238710652324 3.8636937113075933 2 77.875049271206819 1.33012782846611 2 80.690765442998767 5.6455108648328212 2 82.742248780036306 6.8941689669048509 2 94.267502004910071 3.4826434554033288 2 95.204059121893934 11.206539502380647 2 8.7952196798001534 5.6287794508861371 2 17.393652321932841 3.7808636172574674 2 26.071833809884463 1.33012782846611 2 31.696742830830221 3.6484680093511463 2 39.746406893388276 5.938940507045074 2 41.897910795404279 5.0104728993130347 2 46.801220396633397 9.4733270414068826 2 51.045467975059715 1.33012782846611 2 58.520103437668659 1.33012782846611 2 63.8893940515457 6.0854896685000854 2 67.747837152713785 1.33012782846611 2 73.556672334877987 11.919675302051587 2 76.100549643920985 8.0270314767967896 2 78.213713178360223 6.7189070827624358 2 87.22559517755073 1.33012782846611 2 90.03100492199529 10.665355389054231 2 96.845680281901394 1.33012782846611 2 4.1188189282638632 5.5421393187856491 2 12.778523911536531 4.5592365102453805 2 19.637748120581044 3.0912634303724764 2 37.605915906632376 5.0628751969902925 2 35.080583056428537 1.33012782846611 2 47.068064982833818 2.8162380417186803 2 46.232262909376004 6.9679573731761719 2 55.762790263089222 7.8555768532388335 2 59.08916294180991 5.8360143185804123 2 59.769866473652762 3.52516324892941 2 69.439109077420753 6.1814643223200028 2 73.923597946074096 1.33012782846611 2 76.799622073086553 3.3875161793389799 2 80.500004766837378 3.3570062867916475 2 85.919609232075913 3.4995868399265291 2 92.064951182159248 3.2620416304246946 2 96.581067814538827 6.609871163397103 2 </DataArray>
<DataArray Name="forces" NumberOfComponents="3" format="ascii" type="Float32">0 0 0 0.010575322225015282 -0.19925192226884778 0.0 0.059909671664734918 -0.0066545656058648751 0.0 -0.014262607673160788 0.086613280631825079 0.0 0.032031408133989914 -0.24472077584894059 0.0 -0.033437643028875419 0.1773195816706995 0.0 0.013566972100375996 0.06095331867536069 0.0 -0.030916038584512112 0.1343701484552576 0.0 -0.011194640071479967 -0.2826199185510534 0.0 0.0084969446337076759 0.078376221479942249 0.0 0.017526182744624169 0.056532189623046722 0.0 -0.090497048618955023 -0.64970452160036141 0.0 -0.0056543759071000996 0.14294888706769046 0.0 0.057064346519969694 0.10369765793409935 0.0 0.087418323482960608 0.15093891274369176 0.0 -0.053345772240467215 0.091797737600077062 0.0 -0.13077285649184023 0.13337122427081499 0.0 -0.075393491378350719 0.12494478933396383 0.0 -0.029741818993711033 -0.23210080709234263 0.0 0.0012588678653138174 -0.25227278636267836 0.0 -0.080711829412163094 -0.13948724205058854 0.0 -0.0087280657680555013 0.23176982827110654 0.0 0.068934446588537146 -0.48571880159642611 0.0 0.020409949807443414 0.17182877599222873 0.0 0.060298321880568384 -0.70109413647080965 0.0 -0.050088580314804051 0.18312403953400241 0.0 -0.0058435407452106791 0.099780723886002731 0.0 -0.048621296666091773 0.015266097583276572 0.0 -0.090696694400763583 0.1499160503451307 0.0 -0.047142547637485058 0.11665374741253422 0.0 -0.019279861933029108 -0.45798277908149387 0.0 0.11462342645880147 0.016591194019355798 0.0 0.024474302330632455 0.14582732155443145 0.0 0.010170611018263415 -0.60529244109558711 0.0 -0.062562278014018147 0.08277509754580227 0.0 -0.063263987352432355 0.062197360901906903 0.0 -0.029612460305004307 0.049616178132928297 0.0 -0.16982355955069287 0.10674812980460294 0.0 -0.064476075758398324 0.060492445706781875 0.0 -0.0070480429153826074 0.16206383444980238 0.0 0.033770075957717915 0.11485474515115224 0.0 -0.036955520928494384 0.12596217552802169 0.0 0.0097827864276949922 0.10728623372582524 0.0 -0.035068301398682389 -0.34150145284988176 0.0 0.0086064658666604732 0.13361624882461989 0.0 -0.060002257258343239 0.14453300469422875 0.0 0.023358601807722049 0.17526086094617926 0.0 0.057719272949190312 0.16276356267337136 0.0 -0.0082178043891406594 0.13459184889361916 0.0 -0.00091443241651080476 -0.37630771588583389 0.0 -0.093344735936628273 0.16985960694591964 0.0 -0.0024882326115035491 -0.36481557852324242 0.0 -0.15412449301325859 0.027685051608998382 0.0 0.047498972927012051 0.077209298462169035 0.0 0.15763739829216034 -0.037572930961543349 0.0 -0.036870832022492084 0.12395041485869657 0.0 0.026825094777166131 0.062413554996040538 0.0 0.0021397506860058035 -0.2636295617859043 0.0 0.014971957182479283 0.098427794335714275 0.0 -0.027116006293658179 0.091442076474347225 0.0 -0.069683653735460677 0.046361289862313228 0.0 -0.029211239665222766 -0.19629213739717993 0.0 -0.015292599593408798 0.055851983622689616 0.0 0.018878913507417189 0.067787027043701154 0.0 -0.059901326711983588 -0.36108252507335709 0.0 -0.011624669520277436 -0.32812583775590276 0.0 0.022273006300374931 0.14208050904521818 0.0 -0.10672594478427914 0.11080446216932495 0.0 -0.032351281442256019 0.10652877832069205 0.0 -0.065417655485559167 0.15758290323047727 0.0 -0.0071078469198196659 0.010328004405597599 0.0 -0.090911563045030286 0.29590570444532621 0.0 -0.025324395724265078 -0.23781888497570841 0.0 -0.031775370923641008 0.16231797283102328 0.0 -0.013034853070289759 -0.61858272471007059 0.0 -0.018025096115164504 0.18602340231370065 0.0 -0.034863305751586679 0.052812790872977335 0.0 0.019996570239290801 0.11668651241156765 0.0 -0.0035122875397148937 0.089638442958318049 0.0 -0.10480193851371988 -0.046044174287813877 0.0 0.023561220567358376 0.12560658647642284 0.0 -0.0049418080657467334 0.0850561676403567 0.0 0.13570111371225793 0.13524801882960122 0.0 -0.016287516573169292 0.055269395262203452 0.0 -0.10884197879925817 0.147262932466732 0.0 -0.10017553831469074 0.097131165223339977 0.0 -0.023303498064129673 0.081909734518991584 0.0 -0.050490342086474321 0.057019513917775433 0.0 -0.10705462856469281 -0.23362425501977613 0.0 -0.052184768063656767 0.16301852395098038 0.0 0.039234046172610171 0.086668256886191924 0.0 0.0088024500780359283 0.12183479176525312 0.0 0.031455193652244494 0.082662303977807911 0.0 -0.019515344102860287 0.18295928088159688 0.0 -0.011587761727369521 0.15727234542723253 0.0 -0.018887384474888275 0.09475672424108969 0.0 -0.007114462196808724 0.17460466104254554 0.0 -0.0027418480993563477 -0.0070255769092729264 0.0 -0.040449118535777512 -0.29886938302868188 0.0 0.019758906499695295 0.09741751759113132 0.0 -0.047809506472704238 0.24134569152197846 0.0 -0.011309494690490751 0.075936361736249069 0.0 -0.053323721642447912 0.11294514029061661 0.0 0.0060172658106667429 0.16335201718411083 0.0 -0.0051178143880125648 0.062084424598730439 0.0 -0.084732666738007972 -0.1311354751307677 0.0 -0.011078182422077143 -0.001955863066263816 0.0 0.0017839763363453054 0.18103666516335254 0.0 0.0084832911224335672 0.14430670877724802 0.0 -0.031245203022199713 0.14393365619754017 0.0 0.037094616523116561 -0.36512983064926119 0.0 -0.039304276455555578 -0.3816063061261194 0.0 0.004065877496205704 0.098714061785861382 0.0 -0.10431824414374191 -0.41216233251760781 0.0 -0.040281110663616074 0.13666327531443406 0.0 0.047316562939619666 0.14405019923683376 0.0 0.064281754383457179 0.15894518476340963 0.0 -0.015561217927952939 -0.11616052813092137 0.0 -0.069415663929861204 0.1734302576737301 0.0 0.0010297185779952756 -0.024961147107793142 0.0 -0.097071954949368405 0.14279436588412159 0.0 -0.0043162281826305271 0.10281239817268724 0.0 0.014045893282442434 0.17806346664966949 0.0 0.01056306624735398 0.13073955976460119 0.0 0.059520506163811937 -0.5082158157292177 0.0 0.029708951696380423 0.052656141054719892 0.0 -0.012258501808350301 0.12526466603237746 0.0 -0.01267236353325258 0.13161726489388281 0.0 0.019079444820271976 0.097982581063165042 0.0 -0.06985406095133255 0.04279073316351012 0.0 0.047593040938670686 0.016715024000815037 0.0 -0.068587031556948827 -0.467924371810433 0.0 -0.001195499840393327 0.034387733862867143 0.0 0.038308526476174179 0.071012423435217131 0.0 -0.079438748133942319 0.058582155270676894 0.0 0.011774296131869977 0.041653045637251286 0.0 -0.0055000676004200982 0.090977219118016317 0.0 </DataArray>
<DataArray Name="radii" format="ascii" type="Float32">0 1.33012782846611 1.33012782846611 1.33012782846611 1.33012782846611 1.33012782846611 1.33012782846611 1.33012782846611 1.33012782846611 1.33012782846611 1.33012782846611 1.33012782846611 1.33012782846611 1.33012782846611 1.33012782846611 1.33012782846611 1.33012782846611 1.33012782846611 1.33012782846611 1.33012782846611 1.33012782846611 1.33012782846611 1.33012782846611 1.33012782846611 1.33012782846611 1.33012782846611 1.33012782846611 1.33012782846611 1.33012782846611 1.33012782846611 1.33012782846611 1.33012782846611 1.33012782846611 1.33012782846611 1.33012782846611 1.33012782846611 1.33012782846611 1.33012782846611 1.33012782846611 1.33012782846611 1.33012782846611 1.33012782846611 1.33012782846611 1.33012782846611 1.33012782846611 1.33012782846611 1.33012782846611 1.33012782846611 1.33012782846611 1.33012782846611 1.33012782846611 1.33012782846611 1.33012782846611 1.33012782846611 1.33012782846611 1.33012782846611 1.33012782846611 1.33012782846611 1.33012782846611 1.33012782846611 1.33012782846611 1.33012782846611 1.33012782846611 1.33012782846611 1.33012782846611 1.33012782846611 1.33012782846611 1.33012782846611 1.33012782846611 1.33012782846611 1.33012782846611 1.33012782846611 1.33012782846611 1.33012782846611 1.33012782846611 1.33012782846611 1.33012782846611 1.33012782846611 1.33012782846611 1.33012782846611 1.33012782846611 1.33012782846611 1.33012782846611 1.33012782846611 1.33012782846611 1.33012782846611 1.33012782846611 1.33012782846611 1.33012782846611 1.33012782846611 1.33012782846611 1.33012782846611 1.33012782846611 1.33012782846611 1.33012782846611 1.33012782846611 1.33012782846611 1.33012782846611 1.33012782846611 1.33012782846611 1.33012782846611 1.33012782846611 1.33012782846611 1.33012782846611 1.33012782846611 1.33012782846611 1.33012782846611 1.33012782846611 1.33012782846611 1.33012782846611 1.33012782846611 1.33012782846611 1.33012782846611 1.33012782846611 1.33012782846611 1.33012782846611 1.33012782846611 1.33012782846611 1.33012782846611 1.33012782846611 1.33012782846611 1.33012782846611 1.33012782846611 1.33012782846611 1.33012782846611 1.33012782846611 1.33012782846611 1.33012782846611 1.33012782846611 1.33012782846611 1.33012782846611 1.33012782846611 1.33012782846611 1.33012782846611 1.33012782846611 1.33012782846611 1.33012782846611 </DataArray>
</PointData>
<CellData/>
</Piece>
</UnstructuredGrid>
</VTKFile>
