<?xml version="1.0" ?>
<VTKFile byte_order="LittleEndian" type="UnstructuredGrid" version="0.1">
<UnstructuredGrid>
<Piece NumberOfCells="0" NumberOfPoints="273">
<Points>
<DataArray NumberOfComponents="3" format="ascii" type="Float32">0 0 0 6.6174505044343972 4.0136016275213553 2 15.744526044642221 1.4049357228216868 2 24.193127869446624 10.396141282065987 2 32.56473413779743 1.4049357228216868 2 36.029536197899652 13.848013529548885 2 44.855991613362626 3.7169946634615516 2 44.244173822252129 11.851389099593804 2 52.578579086878669 1.4049357228216868 2 54.200808933674914 5.6309237354481887 2 61.546364600816091 7.4688907013572114 2 71.168867316017483 1.4049357228216868 2 73.810476066970978 13.448940811217954 2 75.099727462032803 8.3936514840991414 2 81.873494913551582 10.135371051705416 2 87.849690088438237 5.2113311066100669 2 89.243117842136982 10.784007822964266 2 93.109496851305394 7.0702219128955024 2 4.2337245718901233 1.4049357228216868 2 14.035187273040464 1.4049357228216868 2 22.828295985472177 3.4314413103505297 2 33.172732238972401 14.908885165822493 2 37.337789188848483 2.9206100110425108 2 40.925224032464321 11.089544176485518 2 49.394278477799617 1.4049357228216868 2 50.262704736273143 11.602326140643584 2 58.542217635428955 10.414608055840347 2 62.625595167884043 3.1755595760339941 2 69.161158844684152 12.354428209532468 2 71.30629604966775 7.9133388138453071 2 80.464674057247109 1.4049357228216868 2 83.4108599714435 3.2022451136376797 2 85.432355361793782 12.627833965486007 2 92.432526915558682 1.4049357228216868 2 92.146956575691561 13.941283650461251 2 6.5457818124197908 8.5160131075451382 2 16.136506990814858 9.012322248370312 2 23.882960053827066 5.2790525542504669 2 31.929594642511187 8.1540077970887488 2 38.9772118755984 10.633009536466265 2 41.4573133574915 3.3578112322940883 2 49.299554633265707 9.1522405564562632 2 52.480869857063809 3.5148988559961518 2 55.768280375707747 1.4049357228216868 2 66.643612760754493 13.366483255728131 2 65.68190047039603 3.3514753727463971 2 76.180836030420764 13.211723834025191 2 78.803993837540986 14.517895349481316 2 79.072039486281014 5.6654612649677807 2 87.317354460547818 1.4049357228216868 2 86.390908998613497 10.090749048416766 2 94.042555234862704 1.4049357228216868 2 5.6040864094130347 6.11603244504479 2 13.695380874259307 9.2333013429261328 2 22.003120318380102 5.871660415146688 2 35.374578114957828 5.9933634863495735 2 33.610006376444389 4.8342952610709826 2 46.207240183212242 1.4049357228216868 2 46.234608070680267 5.1852148391023087 2 52.591651365247465 11.454600945812043 2 57.990508556151347 5.3728432593485769 2 60.93786115087169 3.1508287068383281 2 67.201745726672726 5.0512773798660735 2 72.859180258025262 3.1736859736783787 2 74.885516380634854 3.2627306788666797 2 81.44897305760496 3.1986296972227857 2 86.766858706109176 7.6529666260846021 2 88.681988980722153 6.8969847263655737 2 93.09709300012419 11.403932230238222 2 7.8828995496529055 6.4175403406338738 2 14.782501916132299 4.2117302901136044 2 21.044092728136498 8.0835914671114839 2 30.821732551413689 1.4049357228216868 2 36.263936877353125 9.3494023867433054 2 41.919124738205149 1.4049357228216868 2 42.098197128265916 12.892629321753365 2 54.093159655703083 3.5273304912606958 2 56.920931098135974 7.1086814996382754 2 62.878742814163395 12.589401904453485 2 69.594646497666716 1.4049357228216868 2 73.479762772753958 8.6506360202108006 2 73.897970902449273 4.7514619360554509 2 83.99835234402893 14.672623496049587 2 89.361709370480924 3.7754537598888596 2 91.13121541931126 9.6773424535602892 2 91.372778260498947 6.9919132946119991 2 1.4049357228216868 4.9163094036626536 2 11.978208075454919 1.4049357228216868 2 20.172691343031403 1.4049357228216868 2 33.401985612805305 9.8219685894182742 2 36.120572964003166 4.2979565400970099 2 44.672897816739891 8.8347794023572117 2 50.244959434753675 5.2256434925957853 2 51.318112284668679 9.4747058934886716 2 56.265794012495782 14.68195057668702 2 64.006728023167369 5.3832962827367972 2 70.067930887911757 10.151465428063041 2 69.355491084444552 5.1165609007058039 2 78.275618634615697 3.1512517056651013 2 80.951087138407203 7.6359387297986601 2 82.952030797211137 12.195219387500496 2 93.443347771485818 5.2402892952490525 2 93.595081880562375 16.151585191783433 2 9.2393210766291425 8.7232428604325936 2 18.002142824278003 5.3314494770081691 2 25.245197060512236 1.4049357228216868 2 31.131017750410589 3.7762037532678212 2 40.628170791261759 8.7612790780349172 2 42.912023319224048 7.782284919052743 2 46.448185303428133 13.202441818056142 2 50.985020620035606 1.4049357228216868 2 59.028710685236632 1.4049357228216868 2 63.366403331869314 7.3606293211023379 2 68.06033483649729 1.4049357228216868 2 73.426428678755997 16.007602258382082 2 75.990089900466728 10.764253950426481 2 78.254415718729632 10.082554140338775 2 87.800587951856158 3.2322404949375998 2 87.303318414250072 14.738914572485143 2 96.935796276431148 1.4049357228216868 2 3.9943469486131513 8.165767491688138 2 11.688577972078336 8.0072038134788279 2 19.853524885368536 5.9672635125602884 2 36.877366868155598 7.0090891680333947 2 36.091891956994587 1.4049357228216868 2 46.753422026459958 3.3095686034684166 2 47.22133747083717 8.7493367094757257 2 54.799719118750616 10.672577851095349 2 58.576906771998189 8.1002463720980682 2 60.535569439896619 5.0406552363363994 2 69.168365889232902 8.1460536442321381 2 72.870991531661645 1.4049357228216868 2 76.30497079344623 3.7475631795297799 2 79.873479098295178 3.7219670957027366 2 84.666751809703683 3.5283971183100826 2 91.692187812223438 4.9692262097001283 2 96.76958722872466 7.4566024495209691 2 6.1797499867493668 1.4049357228216868 2 16.689466326117081 3.4197369584002191 2 23.402618056247675 7.9283529778076272 2 32.647606338458097 3.247699191677127 2 37.265436457651887 11.654589170364494 2 43.34139089389452 3.5143338267112325 2 44.173120725197606 14.509781269182565 2 54.168693736398446 1.4049357228216868 2 53.387794383908869 9.0956266560225387 2 62.881997640729715 9.8925120483299196 2 71.17823136302728 3.5194046430140489 2 71.707229583484875 12.112920556241944 2 76.735015451988971 6.5532591816336803 2 80.335408070024386 11.880083968130442 2 86.40050902527075 5.6261716514023981 2 91.176699243965558 11.849979513236599 2 94.826697528063789 7.3219683421525597 2 2.1698795840115057 3.10753507170377 2 12.893088267885135 3.3137780875013578 2 23.529180063020359 1.4049357228216868 2 33.033800078467785 12.445284376941265 2 38.006655521427874 1.4049357228216868 2 42.791804027219186 10.059541984744012 2 47.776728896489089 1.4049357228216868 2 51.617732542874023 13.874530200757949 2 60.5433819879403 9.0743232980243036 2 62.240714484136745 5.289053411255014 2 68.698656308341086 14.905387193230494 2 73.168350276818202 6.7286883777906183 2 79.124846787803193 1.4049357228216868 2 82.274686364842651 4.8396223762949155 2 84.395631895097381 10.327330635298745 2 90.623545557077364 1.4049357228216868 2 90.380155537701299 15.816076795526739 2 7.563727892160153 10.866538030395871 2 18.340061467741446 7.9399260965740259 2 25.052959633684729 3.4350602705241693 2 33.183952763216801 6.6712416111650219 2 39.343592647407014 13.255708710316036 2 40.264678792115362 4.9657937634171034 2 48.059633279438579 11.244456334956418 2 52.123692194238885 5.3944877203681454 2 55.778327199575543 3.4623005678439656 2 65.622414050508851 9.8121177719948598 2 65.518684943546546 5.7231943682740027 2 76.160101414941337 15.692805012576816 2 78.123442370040195 12.157189291601405 2 78.715926431128068 7.5121654170867771 2 85.810328166542007 1.4049357228216868 2 87.571632635916373 12.101866771677857 2 95.426416716324695 3.4574264415917049 2 4.5711287712996844 3.5604876558153262 2 13.099397999851666 11.624215946883949 2 20.818412086701461 3.802469247062505 2 34.627035318515382 8.1209201410986136 2 34.76119436261655 3.1729006412827645 2 44.816961026090262 1.4049357228216868 2 45.775275181185258 7.1765385446344592 2 54.193976074454916 13.258634769519727 2 57.417036623975122 3.3696523904587421 2 60.578157817379733 1.4049357228216868 2 67.616255881420727 3.3568333211060501 2 71.905885916138132 5.2572594864245232 2 76.148970859406859 1.4049357228216868 2 82.033942895071377 1.4049357228216868 2 84.984771818488369 7.868294349066228 2 88.22640248581682 9.1770087630399573 2 94.531385368972238 9.3308854205725247 2 8.775873893098705 4.2239814559366415 2 14.240545304959268 6.8938628781786386 2 21.837060588791861 10.610754765022651 2 29.457691390604882 3.173313847487464 2 38.305851659078513 8.7106556700583209 2 43.38126995736549 1.4049357228216868 2 41.184669833237209 15.235720922267021 2 55.912768449532777 5.4078937724557345 2 55.04370459031815 7.8414448125966638 2 64.782362506156574 11.743382511100688 2 69.454737989565913 3.3906743612465906 2 74.020776810667385 10.989256696283475 2 75.172313161081206 5.9756588556768433 2 81.401635266224602 14.160499360251233 2 89.990850746702975 5.519039779793677 2 92.722997267093007 8.9969228360920681 2 90.068437596721765 8.1833247215093117 2 3.5236410979564532 5.5368822757163478 2 10.135513262979494 1.4049357228216868 2 21.764253854472972 1.4049357228216868 2 35.064027849711593 11.341169424140375 2 37.926278986109537 5.1207688975099357 2 44.171734036238377 6.0545623589821682 2 48.815282907028475 3.2312149748159462 2 52.827118135238123 7.1495238792927758 2 56.586270923544909 12.089116602198601 2 64.187196298288001 3.2582052090805464 2 72.016959110721785 9.9448684733355961 2 70.50793337037706 6.2664172591300904 2 77.501090012751789 1.4049357228216868 2 82.873386207026542 6.7915251919619974 2 83.070114401122851 8.6110830883421556 2 93.910133384956794 3.3831398826797647 2 94.429611579663813 13.675909807660251 2 10.159822251536605 6.1615155546586102 2 16.265205487180136 6.2974190891666586 2 26.972177127488042 1.4049357228216868 2 31.361395520643772 5.6431983011879243 2 41.213967692290247 6.7821023847872803 2 42.545628571184643 5.265381075957583 2 48.955862779370605 13.817565071496002 2 50.708635254990469 3.3729113580474488 2 57.448514024255601 1.4049357228216868 2 64.671653087891229 8.2944280466147511 2 66.619311599840685 1.4049357228216868 2 71.259615772401673 14.440869041375514 2 76.911055247162381 8.6136355946916368 2 79.967113626461796 9.3729821830301141 2 88.928252442415271 1.4049357228216868 2 89.547995157574277 13.420788261674105 2 95.536308988423485 1.4049357228216868 2 2.626275968247616 10.395311219912163 2 12.540942682905682 5.6071044544783835 2 18.817185021028592 3.2756989803990417 2 39.105875384460944 6.7685149439526553 2 34.324164746425858 1.4049357228216868 2 48.389480463014948 4.9937228000582596 2 45.954961479323543 10.569830549448952 2 56.565520128201236 9.458079346649523 2 59.620719403777606 6.5133192762957721 2 59.098603293761656 3.5768308160122388 2 68.014762198826602 6.6928757868758701 2 74.552008551335618 1.4049357228216868 2 77.508437350722573 4.9368467617124248 2 80.730167467324179 5.7207520381840054 2 86.112326990747633 3.513832098974258 2 92.281420692001944 3.2371234447293378 2 96.420001416360179 9.066107768277913 2 </DataArray>
</Points>
<Cells>
<DataArray Name="connectivity" format="ascii" type="Int32">0</DataArray>
<DataArray Name="offsets" format="ascii" type="Int32">0</DataArray>
<DataArray Name="types" format="ascii" type="UInt8">1</DataArray>
</Cells>
<PointData>
<DataArray Name="Points" NumberOfComponents="3" format="ascii" type="Float32">0 0 0 6.6174505044343972 4.0136016275213553 2 15.744526044642221 1.4049357228216868 2 24.193127869446624 10.396141282065987 2 32.56473413779743 1.4049357228216868 2 36.029536197899652 13.848013529548885 2 44.855991613362626 3.7169946634615516 2 44.244173822252129 11.851389099593804 2 52.578579086878669 1.4049357228216868 2 54.200808933674914 5.6309237354481887 2 61.546364600816091 7.4688907013572114 2 71.168867316017483 1.4049357228216868 2 73.810476066970978 13.448940811217954 2 75.099727462032803 8.3936514840991414 2 81.873494913551582 10.135371051705416 2 87.849690088438237 5.2113311066100669 2 89.243117842136982 10.784007822964266 2 93.109496851305394 7.0702219128955024 2 4.2337245718901233 1.4049357228216868 2 14.035187273040464 1.4049357228216868 2 22.828295985472177 3.4314413103505297 2 33.172732238972401 14.908885165822493 2 37.337789188848483 2.9206100110425108 2 40.925224032464321 11.089544176485518 2 49.394278477799617 1.4049357228216868 2 50.262704736273143 11.602326140643584 2 58.542217635428955 10.414608055840347 2 62.625595167884043 3.1755595760339941 2 69.161158844684152 12.354428209532468 2 71.30629604966775 7.9133388138453071 2 80.464674057247109 1.4049357228216868 2 83.4108599714435 3.2022451136376797 2 85.432355361793782 12.627833965486007 2 92.432526915558682 1.4049357228216868 2 92.146956575691561 13.941283650461251 2 6.5457818124197908 8.5160131075451382 2 16.136506990814858 9.012322248370312 2 23.882960053827066 5.2790525542504669 2 31.929594642511187 8.1540077970887488 2 38.9772118755984 10.633009536466265 2 41.4573133574915 3.3578112322940883 2 49.299554633265707 9.1522405564562632 2 52.480869857063809 3.5148988559961518 2 55.768280375707747 1.4049357228216868 2 66.643612760754493 13.366483255728131 2 65.68190047039603 3.3514753727463971 2 76.180836030420764 13.211723834025191 2 78.803993837540986 14.517895349481316 2 79.072039486281014 5.6654612649677807 2 87.317354460547818 1.4049357228216868 2 86.390908998613497 10.090749048416766 2 94.042555234862704 1.4049357228216868 2 5.6040864094130347 6.11603244504479 2 13.695380874259307 9.2333013429261328 2 22.003120318380102 5.871660415146688 2 35.374578114957828 5.9933634863495735 2 33.610006376444389 4.8342952610709826 2 46.207240183212242 1.4049357228216868 2 46.234608070680267 5.1852148391023087 2 52.591651365247465 11.454600945812043 2 57.990508556151347 5.3728432593485769 2 60.93786115087169 3.1508287068383281 2 67.201745726672726 5.0512773798660735 2 72.859180258025262 3.1736859736783787 2 74.885516380634854 3.2627306788666797 2 81.44897305760496 3.1986296972227857 2 86.766858706109176 7.6529666260846021 2 88.681988980722153 6.8969847263655737 2 93.09709300012419 11.403932230238222 2 7.8828995496529055 6.4175403406338738 2 14.782501916132299 4.2117302901136044 2 21.044092728136498 8.0835914671114839 2 30.821732551413689 1.4049357228216868 2 36.263936877353125 9.3494023867433054 2 41.919124738205149 1.4049357228216868 2 42.098197128265916 12.892629321753365 2 54.093159655703083 3.5273304912606958 2 56.920931098135974 7.1086814996382754 2 62.878742814163395 12.589401904453485 2 69.594646497666716 1.4049357228216868 2 73.479762772753958 8.6506360202108006 2 73.897970902449273 4.7514619360554509 2 83.99835234402893 14.672623496049587 2 89.361709370480924 3.7754537598888596 2 91.13121541931126 9.6773424535602892 2 91.372778260498947 6.9919132946119991 2 1.4049357228216868 4.9163094036626536 2 11.978208075454919 1.4049357228216868 2 20.172691343031403 1.4049357228216868 2 33.401985612805305 9.8219685894182742 2 36.120572964003166 4.2979565400970099 2 44.672897816739891 8.8347794023572117 2 50.244959434753675 5.2256434925957853 2 51.318112284668679 9.4747058934886716 2 56.265794012495782 14.68195057668702 2 64.006728023167369 5.3832962827367972 2 70.067930887911757 10.151465428063041 2 69.355491084444552 5.1165609007058039 2 78.275618634615697 3.1512517056651013 2 80.951087138407203 7.6359387297986601 2 82.952030797211137 12.195219387500496 2 93.443347771485818 5.2402892952490525 2 93.595081880562375 16.151585191783433 2 9.2393210766291425 8.7232428604325936 2 18.002142824278003 5.3314494770081691 2 25.245197060512236 1.4049357228216868 2 31.131017750410589 3.7762037532678212 2 40.628170791261759 8.7612790780349172 2 42.912023319224048 7.782284919052743 2 46.448185303428133 13.202441818056142 2 50.985020620035606 1.4049357228216868 2 59.028710685236632 1.4049357228216868 2 63.366403331869314 7.3606293211023379 2 68.06033483649729 1.4049357228216868 2 73.426428678755997 16.007602258382082 2 75.990089900466728 10.764253950426481 2 78.254415718729632 10.082554140338775 2 87.800587951856158 3.2322404949375998 2 87.303318414250072 14.738914572485143 2 96.935796276431148 1.4049357228216868 2 3.9943469486131513 8.165767491688138 2 11.688577972078336 8.0072038134788279 2 19.853524885368536 5.9672635125602884 2 36.877366868155598 7.0090891680333947 2 36.091891956994587 1.4049357228216868 2 46.753422026459958 3.3095686034684166 2 47.22133747083717 8.7493367094757257 2 54.799719118750616 10.672577851095349 2 58.576906771998189 8.1002463720980682 2 60.535569439896619 5.0406552363363994 2 69.168365889232902 8.1460536442321381 2 72.870991531661645 1.4049357228216868 2 76.30497079344623 3.7475631795297799 2 79.873479098295178 3.7219670957027366 2 84.666751809703683 3.5283971183100826 2 91.692187812223438 4.9692262097001283 2 96.76958722872466 7.4566024495209691 2 6.1797499867493668 1.4049357228216868 2 16.689466326117081 3.4197369584002191 2 23.402618056247675 7.9283529778076272 2 32.647606338458097 3.247699191677127 2 37.265436457651887 11.654589170364494 2 43.34139089389452 3.5143338267112325 2 44.173120725197606 14.509781269182565 2 54.168693736398446 1.4049357228216868 2 53.387794383908869 9.0956266560225387 2 62.881997640729715 9.8925120483299196 2 71.17823136302728 3.5194046430140489 2 71.707229583484875 12.112920556241944 2 76.735015451988971 6.5532591816336803 2 80.335408070024386 11.880083968130442 2 86.40050902527075 5.6261716514023981 2 91.176699243965558 11.849979513236599 2 94.826697528063789 7.3219683421525597 2 2.1698795840115057 3.10753507170377 2 12.893088267885135 3.3137780875013578 2 23.529180063020359 1.4049357228216868 2 33.033800078467785 12.445284376941265 2 38.006655521427874 1.4049357228216868 2 42.791804027219186 10.059541984744012 2 47.776728896489089 1.4049357228216868 2 51.617732542874023 13.874530200757949 2 60.5433819879403 9.0743232980243036 2 62.240714484136745 5.289053411255014 2 68.698656308341086 14.905387193230494 2 73.168350276818202 6.7286883777906183 2 79.124846787803193 1.4049357228216868 2 82.274686364842651 4.8396223762949155 2 84.395631895097381 10.327330635298745 2 90.623545557077364 1.4049357228216868 2 90.380155537701299 15.816076795526739 2 7.563727892160153 10.866538030395871 2 18.340061467741446 7.9399260965740259 2 25.052959633684729 3.4350602705241693 2 33.183952763216801 6.6712416111650219 2 39.343592647407014 13.255708710316036 2 40.264678792115362 4.9657937634171034 2 48.059633279438579 11.244456334956418 2 52.123692194238885 5.3944877203681454 2 55.778327199575543 3.4623005678439656 2 65.622414050508851 9.8121177719948598 2 65.518684943546546 5.7231943682740027 2 76.160101414941337 15.692805012576816 2 78.123442370040195 12.157189291601405 2 78.715926431128068 7.5121654170867771 2 85.810328166542007 1.4049357228216868 2 87.571632635916373 12.101866771677857 2 95.426416716324695 3.4574264415917049 2 4.5711287712996844 3.5604876558153262 2 13.099397999851666 11.624215946883949 2 20.818412086701461 3.802469247062505 2 34.627035318515382 8.1209201410986136 2 34.76119436261655 3.1729006412827645 2 44.816961026090262 1.4049357228216868 2 45.775275181185258 7.1765385446344592 2 54.193976074454916 13.258634769519727 2 57.417036623975122 3.3696523904587421 2 60.578157817379733 1.4049357228216868 2 67.616255881420727 3.3568333211060501 2 71.905885916138132 5.2572594864245232 2 76.148970859406859 1.4049357228216868 2 82.033942895071377 1.4049357228216868 2 84.984771818488369 7.868294349066228 2 88.22640248581682 9.1770087630399573 2 94.531385368972238 9.3308854205725247 2 8.775873893098705 4.2239814559366415 2 14.240545304959268 6.8938628781786386 2 21.837060588791861 10.610754765022651 2 29.457691390604882 3.173313847487464 2 38.305851659078513 8.7106556700583209 2 43.38126995736549 1.4049357228216868 2 41.184669833237209 15.235720922267021 2 55.912768449532777 5.4078937724557345 2 55.04370459031815 7.8414448125966638 2 64.782362506156574 11.743382511100688 2 69.454737989565913 3.3906743612465906 2 74.020776810667385 10.989256696283475 2 75.172313161081206 5.9756588556768433 2 81.401635266224602 14.160499360251233 2 89.990850746702975 5.519039779793677 2 92.722997267093007 8.9969228360920681 2 90.068437596721765 8.1833247215093117 2 3.5236410979564532 5.5368822757163478 2 10.135513262979494 1.4049357228216868 2 21.764253854472972 1.4049357228216868 2 35.064027849711593 11.341169424140375 2 37.926278986109537 5.1207688975099357 2 44.171734036238377 6.0545623589821682 2 48.815282907028475 3.2312149748159462 2 52.827118135238123 7.1495238792927758 2 56.586270923544909 12.089116602198601 2 64.187196298288001 3.2582052090805464 2 72.016959110721785 9.9448684733355961 2 70.50793337037706 6.2664172591300904 2 77.501090012751789 1.4049357228216868 2 82.873386207026542 6.7915251919619974 2 83.070114401122851 8.6110830883421556 2 93.910133384956794 3.3831398826797647 2 94.429611579663813 13.675909807660251 2 10.159822251536605 6.1615155546586102 2 16.265205487180136 6.2974190891666586 2 26.972177127488042 1.4049357228216868 2 31.361395520643772 5.6431983011879243 2 41.213967692290247 6.7821023847872803 2 42.545628571184643 5.265381075957583 2 48.955862779370605 13.817565071496002 2 50.708635254990469 3.3729113580474488 2 57.448514024255601 1.4049357228216868 2 64.671653087891229 8.2944280466147511 2 66.619311599840685 1.4049357228216868 2 71.259615772401673 14.440869041375514 2 76.911055247162381 8.6136355946916368 2 79.967113626461796 9.3729821830301141 2 88.928252442415271 1.4049357228216868 2 89.547995157574277 13.420788261674105 2 95.536308988423485 1.4049357228216868 2 2.626275968247616 10.395311219912163 2 12.540942682905682 5.6071044544783835 2 18.817185021028592 3.2756989803990417 2 39.105875384460944 6.7685149439526553 2 34.324164746425858 1.4049357228216868 2 48.389480463014948 4.9937228000582596 2 45.954961479323543 10.569830549448952 2 56.565520128201236 9.458079346649523 2 59.620719403777606 6.5133192762957721 2 59.098603293761656 3.5768308160122388 2 68.014762198826602 6.6928757868758701 2 74.552008551335618 1.4049357228216868 2 77.508437350722573 4.9368467617124248 2 80.730167467324179 5.7207520381840054 2 86.112326990747633 3.513832098974258 2 92.281420692001944 3.2371234447293378 2 96.420001416360179 9.066107768277913 2 </DataArray>