<?xml version="1.0" ?>
<VTKFile byte_order="LittleEndian" type="UnstructuredGrid" version="0.1">
<UnstructuredGrid>
<Piece NumberOfCells="0" NumberOfPoints="4">
<Points>
<DataArray NumberOfComponents="3" format="ascii" type="Float32">12.241419082181775 2.4230851851777548 2 15.207431314924317 1 2 10.900754274873551 1 2 14.18862368901762 2.6887444564212002 2 </DataArray>
</Points>
<Cells>
<DataArray Name="connectivity" format="ascii" type="Int32">0</DataArray>
<DataArray Name="offsets" format="ascii" type="Int32">0</DataArray>
<DataArray Name="types" format="ascii" type="UInt8">1</DataArray>
</Cells>
<PointData>
<DataArray Name="Points" NumberOfComponents="3" format="ascii" type="Float32">12.241419082181775 2.4230851851777548 2 15.207431314924317 1 2 10.900754274873551 1 2 14.18862368901762 2.6887444564212002 2 </DataArray>
<DataArray Name="forces" NumberOfComponents="3" format="ascii" type="Float32">-0.003972001338428871 0.030218774226600242 0.0 0.015010911272858869 -0.024833846764158358 0.0 -0.033225593775037712 -0.035301657022469131 0.0 0.022186683840607714 0.029916729560027246 0.0 </DataArray>
<DataArray Name="radii" format="ascii" type="Float32">1 1 1 1 </DataArray>
</PointData>
<CellData/>
</Piece>
</UnstructuredGrid>
</VTKFile>
