<?xml version="1.0" ?>
<VTKFile byte_order="LittleEndian" type="UnstructuredGrid" version="0.1">
<UnstructuredGrid>
<Piece NumberOfCells="0" NumberOfPoints="193">
<Points>
<DataArray NumberOfComponents="3" format="ascii" type="Float32">0 0 0 31.457856627390978 11.702131033856649 2 33.4877828147253 18.342845874447971 2 63.111372226513851 1.4 2 68.10804873621683 6.8683239650896928 2 91.458635652537993 4.4518954352580469 2 98.6 1.4 2 33.445662864149185 1.4 2 35.917199605893096 2.7345478826342058 2 61.727415118359495 4.9561681898783494 2 66.297723171020053 10.075679373534062 2 98.6 15.601841734608023 2 94.05207258148279 7.2234623341343953 2 36.045494230008138 8.3356061150641629 2 39.157750841074019 1.4 2 63.305114931487815 9.9917137274494525 2 65.543137137535496 3.8093327364236744 2 90.946469038755666 7.2358851542036779 2 97.351624609258963 7.5409077331523795 2 30.13717310331895 10.650491011580979 2 33.94345148904759 5.8964820799938247 2 61.301241268016447 9.4770545861295385 2 63.989643075211056 13.933307622006307 2 94.508761817337628 16.464792638833682 2 92.397367492402211 6.0902698396186725 2 35.788408540813592 9.7869963494900709 2 33.735136550304091 15.93037522476866 2 61.240236404285028 2.8726432880703703 2 66.103789476034805 1.4 2 89.639977535334765 5.4811346697229935 2 98.6 7.8684746520368263 2 32.525191917776823 6.2030344742361052 2 36.487450025060724 5.0301866272218447 2 58.334948566530159 1.4 2 66.04130882735781 5.0591050386258818 2 94.343637149668865 10.22589244646351 2 98.6 9.5470360519557129 2 37.462116313697216 5.8941247548831246 2 41.42819409783047 3.663378937031557 2 64.579436338792718 17.909711972992724 2 63.460286879766542 5.4542999469328546 2 90.411893363961269 14.74579423574621 2 95.32477399077473 1.4 2 28.444801356019614 7.0932862818830005 2 34.596075130783127 1.4 2 61.566216043330876 7.1111906950337378 2 63.808309673894136 8.789611280317672 2 90.885731391262723 16.737558141142678 2 93.844438832692362 3.1140657084927188 2 33.624166542682701 12.01663674624346 2 36.297900737086401 15.483963671870891 2 62.921995785512664 2.8874449584232673 2 67.755709231926474 5.0553612039488893 2 91.978536137329769 1.4 2 96.414538984682906 1.4 2 31.027302483628386 1.4 2 36.772766627358187 3.8335380865790101 2 59.990019526976283 4.5256007467980677 2 66.769893778080913 7.5381172932718936 2 97.068634192171885 11.298967275555592 2 94.554114486101724 8.649068683859813 2 36.997319875536 10.626640489057863 2 38.089161903952338 1.4 2 62.374193599006155 15.745214374676999 2 64.01162184825489 1.4 2 92.693431838380391 8.8258650399389307 2 98.6 5.2344747233454259 2 30.863174442656039 9.3593966077628892 2 32.321711056591653 3.0031183517321804 2 62.091714507972569 13.075530776221896 2 65.222583845461315 11.349778067607076 2 92.506785015142142 15.742208696480484 2 92.772922509413931 3.8066108686395048 2 33.697689554445233 7.3128512678957467 2 36.325638368131557 11.803951818732536 2 59.418484892241885 1.4 2 67.966596766626964 3.3760002043297699 2 88.579140505132884 8.0196580710545931 2 97.454036320483013 3.6644235447720188 2 29.952010126201014 7.8225996434688483 2 34.658254176213902 8.1241703679521127 2 58.935997526652223 3.7122459360346514 2 64.922720052558205 7.3392981171052467 2 94.779296087602305 12.670441675695885 2 95.959752346384377 8.7401642248558691 2 38.117134174283919 4.3653044715238787 2 42.104294528359567 5.1747769966602242 2 62.510064741299118 18.430785575740099 2 64.819330752586296 5.6525113505400508 2 93.39520216192453 11.775042092864899 2 96.357431123845245 3.0651636283070727 2 28.930864885714552 5.904199165657837 2 34.930102933392483 3.4422130663468602 2 63.099294542626254 4.1889554861897826 2 62.853459124820233 7.4318157332523915 2 88.81228506395054 15.684804171026812 2 93.063009752629952 1.4 2 32.551352685297957 13.467678629209782 2 35.425111649014553 16.946705131726787 2 62.195497100032355 1.4 2 69.265920185525161 6.5012244306624245 2 90.242949982245577 3.8433403984805454 2 98.6 2.5905215861820308 2 33.61383629362647 2.6812888553629679 2 36.917397093834637 1.4 2 60.755162633694077 5.5610378680117352 2 66.296172767592481 8.7497862355684646 2 98.6 13.497237249419831 2 94.953073911658876 6.3594523653407524 2 37.356167862437815 8.9808057886547772 2 40.083182905189702 2.6629922289091001 2 63.784317406394919 11.285253362776112 2 66.851063061567785 2.7323298014307271 2 90.836170102625516 8.5539305518586719 2 96.213676261510827 6.9558996042056283 2 29.163350423259082 12.000745682417689 2 33.597281556258828 4.0055211453031232 2 62.228795517687274 10.631489917116141 2 63.676936620367385 12.548994538850499 2 96.764736041780736 17.000107693648939 2 91.014124251545596 5.6981138264442182 2 34.593447594969049 10.500971720038558 2 33.955260798531306 14.293561526120818 2 60.385260665368364 1.4 2 65.461072552358587 2.4765852699462791 2 89.573695361050696 6.9573743315232877 2 98.6 6.3515333491401362 2 32.272535926298254 7.8141003521839787 2 35.27727541410399 6.002847500427813 2 58.931626781108008 2.4325462239828606 2 65.914131740727683 6.4118500641769858 2 95.605562845485508 10.869365455790149 2 98.6 11.482155993726099 2 37.449391789537636 7.2990406990338199 2 40.937311505378112 4.7454216406573977 2 63.273483690375045 16.862393380245376 2 63.850517811440646 6.6811902945301647 2 91.681852783955975 13.660041773475932 2 95.036002085407347 3.1200407805833734 2 29.004629997566873 8.8508874549803824 2 35.733976886511215 1.4 2 62.232336145676484 6.0386923196974251 2 64.937498034815761 10.046201493378875 2 92.970020086884162 18.327993020718001 2 94.621358535069604 4.8611994232230025 2 32.594183585026109 10.849256851333926 2 35.503537591278381 14.068803133556088 2 64.200944988419337 3.0611322741767975 2 69.442573190084076 5.400694746805903 2 91.990514419285304 2.8722421634790001 2 97.578530505404942 1.4 2 32.157080589712727 1.4 2 38.738838699605139 3.1678948023041378 2 59.654569580368779 6.1230233343115401 2 67.179514386493992 6.1194433221425468 2 96.635249160985907 13.028678572965209 2 92.595053638423892 7.4789006984277506 2 38.48170016471088 11.342180883772908 2 37.497032194947558 2.6965506522910654 2 62.349056064444426 14.387923421753987 2 64.960261300661884 1.4 2 92.622357978926502 10.15031223346422 2 96.814592316221109 5.5879954326386549 2 32.281451583023667 9.253273763819692 2 32.569401894047445 4.92074826023544 2 60.436748095253037 12.73707080963413 2 65.20714582479674 13.145957531512318 2 93.753766423598947 14.164293485247422 2 93.403319160912048 5.1689646918507028 2 33.782837010305869 9.3740259130295698 2 34.94811093997378 12.299064668665771 2 61.27154343000673 1.4 2 66.853846189268566 3.961296345711967 2 89.465490367691018 9.1128221718934999 2 98.6 3.9551825575056694 2 31.029159280004787 7.0954234502689157 2 36.111063492758703 7.0129320740631931 2 60.217509085931347 3.3085125286515944 2 65.001206293370643 8.4925766846170276 2 96.115424460543665 14.719761035189176 2 97.075366943430083 9.4996509036135599 2 39.673239712999305 3.907820980292747 2 41.277425436779765 6.3699817224659396 2 62.462812716940462 20.458679510666144 2 64.403807175917521 4.2591272377373643 2 92.083286900378454 12.151904501109355 2 96.026937290306094 4.5786055803182739 2 27.484710104681863 5.4203330417608662 2 34.934987602075921 4.7908570166853908 2 61.881709472098869 3.6779908165327333 2 62.438549201146387 8.6606503800958006 2 87.786550348474293 14.377670804278383 2 94.165813689927248 1.4 2 </DataArray>
</Points>
<Cells>
<DataArray Name="connectivity" format="ascii" type="Int32">0</DataArray>
<DataArray Name="offsets" format="ascii" type="Int32">0</DataArray>
<DataArray Name="types" format="ascii" type="UInt8">1</DataArray>
</Cells>
<PointData>
<DataArray Name="Points" NumberOfComponents="3" format="ascii" type="Float32">0 0 0 31.457856627390978 11.702131033856649 2 33.4877828147253 18.342845874447971 2 63.111372226513851 1.4 2 68.10804873621683 6.8683239650896928 2 91.458635652537993 4.4518954352580469 2 98.6 1.4 2 33.445662864149185 1.4 2 35.917199605893096 2.7345478826342058 2 61.727415118359495 4.9561681898783494 2 66.297723171020053 10.075679373534062 2 98.6 15.601841734608023 2 94.05207258148279 7.2234623341343953 2 36.045494230008138 8.3356061150641629 2 39.157750841074019 1.4 2 63.305114931487815 9.9917137274494525 2 65.543137137535496 3.8093327364236744 2 90.946469038755666 7.2358851542036779 2 97.351624609258963 7.5409077331523795 2 30.13717310331895 10.650491011580979 2 33.94345148904759 5.8964820799938247 2 61.301241268016447 9.4770545861295385 2 63.989643075211056 13.933307622006307 2 94.508761817337628 16.464792638833682 2 92.397367492402211 6.0902698396186725 2 35.788408540813592 9.7869963494900709 2 33.735136550304091 15.93037522476866 2 61.240236404285028 2.8726432880703703 2 66.103789476034805 1.4 2 89.639977535334765 5.4811346697229935 2 98.6 7.8684746520368263 2 32.525191917776823 6.2030344742361052 2 36.487450025060724 5.0301866272218447 2 58.334948566530159 1.4 2 66.04130882735781 5.0591050386258818 2 94.343637149668865 10.22589244646351 2 98.6 9.5470360519557129 2 37.462116313697216 5.8941247548831246 2 41.42819409783047 3.663378937031557 2 64.579436338792718 17.909711972992724 2 63.460286879766542 5.4542999469328546 2 90.411893363961269 14.74579423574621 2 95.32477399077473 1.4 2 28.444801356019614 7.0932862818830005 2 34.596075130783127 1.4 2 61.566216043330876 7.1111906950337378 2 63.808309673894136 8.789611280317672 2 90.885731391262723 16.737558141142678 2 93.844438832692362 3.1140657084927188 2 33.624166542682701 12.01663674624346 2 36.297900737086401 15.483963671870891 2 62.921995785512664 2.8874449584232673 2 67.755709231926474 5.0553612039488893 2 91.978536137329769 1.4 2 96.414538984682906 1.4 2 31.027302483628386 1.4 2 36.772766627358187 3.8335380865790101 2 59.990019526976283 4.5256007467980677 2 66.769893778080913 7.5381172932718936 2 97.068634192171885 11.298967275555592 2 94.554114486101724 8.649068683859813 2 36.997319875536 10.626640489057863 2 38.089161903952338 1.4 2 62.374193599006155 15.745214374676999 2 64.01162184825489 1.4 2 92.693431838380391 8.8258650399389307 2 98.6 5.2344747233454259 2 30.863174442656039 9.3593966077628892 2 32.321711056591653 3.0031183517321804 2 62.091714507972569 13.075530776221896 2 65.222583845461315 11.349778067607076 2 92.506785015142142 15.742208696480484 2 92.772922509413931 3.8066108686395048 2 33.697689554445233 7.3128512678957467 2 36.325638368131557 11.803951818732536 2 59.418484892241885 1.4 2 67.966596766626964 3.3760002043297699 2 88.579140505132884 8.0196580710545931 2 97.454036320483013 3.6644235447720188 2 29.952010126201014 7.8225996434688483 2 34.658254176213902 8.1241703679521127 2 58.935997526652223 3.7122459360346514 2 64.922720052558205 7.3392981171052467 2 94.779296087602305 12.670441675695885 2 95.959752346384377 8.7401642248558691 2 38.117134174283919 4.3653044715238787 2 42.104294528359567 5.1747769966602242 2 62.510064741299118 18.430785575740099 2 64.819330752586296 5.6525113505400508 2 93.39520216192453 11.775042092864899 2 96.357431123845245 3.0651636283070727 2 28.930864885714552 5.904199165657837 2 34.930102933392483 3.4422130663468602 2 63.099294542626254 4.1889554861897826 2 62.853459124820233 7.4318157332523915 2 88.81228506395054 15.684804171026812 2 93.063009752629952 1.4 2 32.551352685297957 13.467678629209782 2 35.425111649014553 16.946705131726787 2 62.195497100032355 1.4 2 69.265920185525161 6.5012244306624245 2 90.242949982245577 3.8433403984805454 2 98.6 2.5905215861820308 2 33.61383629362647 2.6812888553629679 2 36.917397093834637 1.4 2 60.755162633694077 5.5610378680117352 2 66.296172767592481 8.7497862355684646 2 98.6 13.497237249419831 2 94.953073911658876 6.3594523653407524 2 37.356167862437815 8.9808057886547772 2 40.083182905189702 2.6629922289091001 2 63.784317406394919 11.285253362776112 2 66.851063061567785 2.7323298014307271 2 90.836170102625516 8.5539305518586719 2 96.213676261510827 6.9558996042056283 2 29.163350423259082 12.000745682417689 2 33.597281556258828 4.0055211453031232 2 62.228795517687274 10.631489917116141 2 63.676936620367385 12.548994538850499 2 96.764736041780736 17.000107693648939 2 91.014124251545596 5.6981138264442182 2 34.593447594969049 10.500971720038558 2 33.955260798531306 14.293561526120818 2 60.385260665368364 1.4 2 65.461072552358587 2.4765852699462791 2 89.573695361050696 6.9573743315232877 2 98.6 6.3515333491401362 2 32.272535926298254 7.8141003521839787 2 35.27727541410399 6.002847500427813 2 58.931626781108008 2.4325462239828606 2 65.914131740727683 6.4118500641769858 2 95.605562845485508 10.869365455790149 2 98.6 11.482155993726099 2 37.449391789537636 7.2990406990338199 2 40.937311505378112 4.7454216406573977 2 63.273483690375045 16.862393380245376 2 63.850517811440646 6.6811902945301647 2 91.681852783955975 13.660041773475932 2 95.036002085407347 3.1200407805833734 2 29.004629997566873 8.8508874549803824 2 35.733976886511215 1.4 2 62.232336145676484 6.0386923196974251 2 64.937498034815761 10.046201493378875 2 92.970020086884162 18.327993020718001 2 94.621358535069604 4.8611994232230025 2 32.594183585026109 10.849256851333926 2 35.503537591278381 14.068803133556088 2 64.200944988419337 3.0611322741767975 2 69.442573190084076 5.400694746805903 2 91.990514419285304 2.8722421634790001 2 97.578530505404942 1.4 2 32.157080589712727 1.4 2 38.738838699605139 3.1678948023041378 2 59.654569580368779 6.1230233343115401 2 67.179514386493992 6.1194433221425468 2 96.635249160985907 13.028678572965209 2 92.595053638423892 7.4789006984277506 2 38.48170016471088 11.342180883772908 2 37.497032194947558 2.6965506522910654 2 62.349056064444426 14.387923421753987 2 64.960261300661884 1.4 2 92.622357978926502 10.15031223346422 2 96.814592316221109 5.5879954326386549 2 32.281451583023667 9.253273763819692 2 32.569401894047445 4.92074826023544 2 60.436748095253037 12.73707080963413 2 65.20714582479674 13.145957531512318 2 93.753766423598947 14.164293485247422 2 93.403319160912048 5.1689646918507028 2 33.782837010305869 9.3740259130295698 2 34.94811093997378 12.299064668665771 2 61.27154343000673 1.4 2 66.853846189268566 3.961296345711967 2 89.465490367691018 9.1128221718934999 2 98.6 3.9551825575056694 2 31.029159280004787 7.0954234502689157 2 36.111063492758703 7.0129320740631931 2 60.217509085931347 3.3085125286515944 2 65.001206293370643 8.4925766846170276 2 96.115424460543665 14.719761035189176 2 97.075366943430083 9.4996509036135599 2 39.673239712999305 3.907820980292747 2 41.277425436779765 6.3699817224659396 2 62.462812716940462 20.458679510666144 2 64.403807175917521 4.2591272377373643 2 92.083286900378454 12.151904501109355 2 96.026937290306094 4.5786055803182739 2 27.484710104681863 5.4203330417608662 2 34.934987602075921 4.7908570166853908 2 61.881709472098869 3.6779908165327333 2 62.438549201146387 8.6606503800958006 2 87.786550348474293 14.377670804278383 2 94.165813689927248 1.4 2 </DataArray>
<DataArray Name="forces" NumberOfComponents="3" format="ascii" type="Float32">0 0 0 -0.12912274912079369 0.30396029329493257 0.0 -0.18618684434342037 0.60387861001046783 0.0 0.020283498906229769 -2.5162472391179356 0.0 0.018285178564328874 0.13383739488554569 0.0 0.11978227616665788 0.18912466561311414 0.0 2.5164091062403755 -2.1003171576159723 0.0 -0.15333910512781013 -2.6032219319345899 0.0 -0.13958955428848083 0.13728010700443039 0.0 0.15092668231955375 0.16942661981023921 0.0 -0.094529999329797887 0.29354197533284526 0.0 0.53945831967868907 0.45262547311246809 0.0 0.066271479417468582 0.37313285757465364 0.0 -0.18217138033313296 0.25625435404998509 0.0 -0.1145377426370926 -2.492097464991013 0.0 0.022600217584739346 0.21713512188141842 0.0 -0.029740454127808347 0.17614076220982777 0.0 0.15804990763780877 0.25688981501318642 0.0 -0.040707791861335663 0.19673369809048835 0.0 -0.2186159696629324 0.28021432193719192 0.0 -0.17627003316524836 0.12640758727920387 0.0 -0.056809606146069738 0.2769654149354529 0.0 0.10220868096751112 0.25241264209255287 0.0 0.23769225781726933 0.49711359137352229 0.0 0.057517397636533962 0.2434297518526185 0.0 -0.10187066644094112 0.2734362349960201 0.0 -0.26499682340008712 0.49969457658367517 0.0 -0.043040255568137953 0.013980737445917324 0.0 -0.016603354585501551 -2.9391619727093743 0.0 0.093347510403683318 0.15255392237029036 0.0 2.0954417354518684 0.38591870011091928 0.0 -0.11258279674329624 0.27868537089477829 0.0 -0.1203136327694021 0.20267473340606876 0.0 0.050069252430514577 -2.9105874757309818 0.0 0.054098999376148482 0.1599942387382845 0.0 0.1788860886987339 0.28800260991984361 0.0 1.8540217499945233 0.32296821376977231 0.0 -0.08971200879765695 0.23060998211071682 0.0 -0.040359288312410813 0.13538460963434296 0.0 0.033574713206999757 0.4024447131443436 0.0 0.049305632399112231 0.053384251550549489 0.0 0.16090272142998255 0.41636979919367845 0.0 0.0043064039088032136 -2.1650264073265229 0.0 -0.055567026445580758 0.17807076123639842 0.0 -0.15804448108663172 -2.3434201777354806 0.0 -0.0081403860227488301 0.24280529696663405 0.0 -0.092155319603421715 0.066351967598700518 0.0 0.20664520900786054 0.42690153766589167 0.0 0.039421173358642259 0.12849504493481156 0.0 -0.11534390389718086 0.41487758593774476 0.0 -0.18386276656080813 0.44117418387537088 0.0 0.002015100747240206 0.029521634363256055 0.0 0.045251113569807266 0.21344318825563091 0.0 0.073055890587036876 -2.1334255934245681 0.0 0.020816787491950928 -2.03074474156133 0.0 -0.14153982125065639 -2.091816063050715 0.0 -0.11474414700432134 0.13078755745957532 0.0 0.12402691900223636 0.33889150399065981 0.0 0.076463575851690835 0.22703874349198822 0.0 -0.047520161867516959 0.42797686254574929 0.0 0.19288225584241137 0.30812805013141542 0.0 -0.11980421622078591 0.39400901827494356 0.0 -0.14578866787211675 -2.4841225289673621 0.0 0.061699869267326679 0.43453189451126861 0.0 0.023476527147226145 -2.4884845406761729 0.0 0.1139922762132452 0.31083146898355757 0.0 1.676096377158421 0.20918527530249292 0.0 -0.15513422758085318 0.34338291330491966 0.0 -0.17628429587617267 0.22398527522815093 0.0 0.0057532047483426774 0.40581193745221222 0.0 0.09521313885518834 0.22076632952410247 0.0 0.2565442560174967 0.48011880494366471 0.0 0.077357494491739023 0.15206044235203212 0.0 -0.10176523604147741 0.25561419822499948 0.0 -0.12287880917960659 0.37167761796488419 0.0 -0.042675489836725145 -3.0821663290007999 0.0 0.071287611587928623 0.22363202328174103 0.0 0.097664671497432076 0.18267330276458923 0.0 -0.14228536431421335 0.29088417692668411 0.0 -0.029344089962275659 0.3226883725486735 0.0 -0.15567972641698946 0.23954046485231306 0.0 0.166393696439951 0.23084128924883643 0.0 -0.046113315743221958 0.34391101996789186 0.0 0.097493042638076538 0.47831084920560379 0.0 0.18701048894124517 0.25508711707544285 0.0 -0.15681992558649882 0.14104290870933139 0.0 0.049267743250607454 0.02866908256945001 0.0 0.01303687287981492 0.47352596322626839 0.0 0.045132072861520989 0.25752005345771356 0.0 0.07022571330306282 0.31360726818480855 0.0 -0.020688718751260021 -0.051083408266495559 0.0 -0.21903749948617363 0.19892022164755196 0.0 -0.10797163933625122 0.19011121914681195 0.0 -0.08856241838773582 -0.09156742487411218 0.0 -0.036687999276037941 0.17333934823121538 0.0 0.10551557755111896 0.39174725134955957 0.0 0.06240737093072557 -2.1030795893932694 0.0 -0.16562167007529027 0.42651524076333736 0.0 -0.24385890309868838 0.4526515588929893 0.0 0.0069151686466589687 -2.5676564087640661 0.0 -0.04269199051181416 0.22371895848060563 0.0 0.060693562227315478 0.17185511559104982 0.0 2.4766234225977972 0.15248193523605869 0.0 -0.16085434811230362 0.085681608303166124 0.0 -0.14451522115835264 -2.7196749122509045 0.0 0.17599975033706453 0.32986384877737479 0.0 0.056729806074733935 0.25192161153423259 0.0 0.84313500575918587 0.35744435412065367 0.0 -0.018738762412649768 0.21221223010500279 0.0 -0.16811783123498913 0.31020777923277099 0.0 -0.05499124421293413 0.20261355804555933 0.0 0.0055291676252627875 0.30106966615652486 0.0 0.066160855312992428 0.13993054984220854 0.0 0.073642188462213473 0.29765109588972605 0.0 -0.007852490602490006 0.16301752013469945 0.0 -0.14124791671023898 0.3490414366486107 0.0 -0.15086857910077622 0.074273729077299455 0.0 0.055712967925719059 0.37874807841413594 0.0 0.027438403698829994 0.28885871493646786 0.0 0.19449532674058329 0.82633325656041334 0.0 0.079465992594232149 0.15962896013630726 0.0 -0.13925698667732148 0.20582035583908231 0.0 -0.1262001121287451 0.47291823149499645 0.0 -0.041553753686673599 -2.5427335079940794 0.0 0.025338156384197119 0.19480040504589463 0.0 0.19375099010119567 0.1879334609120803 0.0 1.8867193396616728 0.32212794511743009 0.0 -0.14414035797982155 0.24133173177382486 0.0 -0.15921728338716834 0.24689997136705544 0.0 -0.044152164270000474 0.23204939898547527 0.0 -0.068816305702397412 0.23907210980004598 0.0 0.018675413262914553 0.48544407793369504 0.0 1.6677468058904061 0.27871983477075241 0.0 -0.10002150245733898 0.31479635364826275 0.0 -0.028851240790978894 0.23905599956492507 0.0 -0.0065878520988060796 0.54113917212107643 0.0 0.026054610449982196 0.14700075118683337 0.0 0.20386165944413742 0.44735016476528189 0.0 -0.019573637504927355 0.29856205344694875 0.0 -0.21116744350854233 0.13209830517240317 0.0 -0.1411305411293664 -2.6830953628081606 0.0 0.15586457333265957 0.260864772684403 0.0 -0.14136032084998645 0.27534551271182139 0.0 0.23092227372482266 0.54040752710994555 0.0 0.13367135159606525 0.2272904250952914 0.0 -0.12122212512631575 0.39376220604059831 0.0 -0.19582214505452533 0.37694219837876297 0.0 0.071608493886313296 0.17334529969035961 0.0 0.071475130692761069 0.17116732318111774 0.0 0.029887928048493606 0.14639366875091386 0.0 0.046549405635949767 -2.1076267262856754 0.0 -0.16726444144304803 -2.3585411151534115 0.0 -0.00078587076490954644 0.1180692375092823 0.0 -0.017441046696427376 0.078985006401070368 0.0 -0.11037847509108104 0.19303990273696481 0.0 0.13622995816424599 0.55103134269826026 0.0 0.087853037153542951 0.28067653561151773 0.0 -0.039232205374772122 0.28971864092762867 0.0 -0.052882227342431476 0.14561339069727436 0.0 0.078521790172192421 0.39847702568607235 0.0 0.025137897142384902 -3.0808914424656031 0.0 0.14120720304810508 0.28914148742271784 0.0 0.22170554558076316 0.18567955294870564 0.0 -0.19477277335767815 0.27795490730808703 0.0 -0.10701324210132457 0.22065787176189378 0.0 0.023864886534083696 0.24821481577743676 0.0 0.087358377130103637 0.32284851557727001 0.0 0.27625425452390612 0.43148399305694385 0.0 0.075842471231654274 0.23627106120795618 0.0 -0.24021957802235661 0.30729697100593079 0.0 -0.16620206124365963 0.27459222185750243 0.0 -0.029632378444610044 -2.781555336319979 0.0 -0.045791856904898731 0.11363174436987455 0.0 0.031188391887825032 0.20329678426143571 0.0 2.3727233058506751 0.042004947277195094 0.0 -0.13970663374963682 0.14372299627502499 0.0 -0.063036947219413761 0.19018046587106258 0.0 0.0008206042548638548 0.21030264121245393 0.0 0.075974580123747609 0.3445525650655839 0.0 0.25665075941324311 0.59923017946545887 0.0 -0.0083790427469966067 0.38151795497559582 0.0 -0.063630435764759213 0.22848176831939448 0.0 -0.057255970865785932 0.10756270682033098 0.0 0.069781753208978975 0.50328643370483928 0.0 -0.10020119838908961 0.28597841606332136 0.0 0.12472345594798157 0.43223494213930747 0.0 0.10008196869250685 0.2532159384038673 0.0 -0.20860178315954014 0.14328947160688432 0.0 -0.11612108158715576 0.21038735392453389 0.0 -0.17257778847820662 0.13310846919582925 0.0 0.042151402382587966 0.31937786686709957 0.0 0.14322948773105024 0.33815247935062698 0.0 0.034207120247319672 -1.9641259352919311 0.0 </DataArray>
<DataArray Name="radii" format="ascii" type="Float32">0 1.4 1.4 1.4 1.4 1.4 1.4 1.4 1.4 1.4 1.4 1.4 1.4 1.4 1.4 1.4 1.4 1.4 1.4 1.4 1.4 1.4 1.4 1.4 1.4 1.4 1.4 1.4 1.4 1.4 1.4 1.4 1.4 1.4 1.4 1.4 1.4 1.4 1.4 1.4 1.4 1.4 1.4 1.4 1.4 1.4 1.4 1.4 1.4 1.4 1.4 1.4 1.4 1.4 1.4 1.4 1.4 1.4 1.4 1.4 1.4 1.4 1.4 1.4 1.4 1.4 1.4 1.4 1.4 1.4 1.4 1.4 1.4 1.4 1.4 1.4 1.4 1.4 1.4 1.4 1.4 1.4 1.4 1.4 1.4 1.4 1.4 1.4 1.4 1.4 1.4 1.4 1.4 1.4 1.4 1.4 1.4 1.4 1.4 1.4 1.4 1.4 1.4 1.4 1.4 1.4 1.4 1.4 1.4 1.4 1.4 1.4 1.4 1.4 1.4 1.4 1.4 1.4 1.4 1.4 1.4 1.4 1.4 1.4 1.4 1.4 1.4 1.4 1.4 1.4 1.4 1.4 1.4 1.4 1.4 1.4 1.4 1.4 1.4 1.4 1.4 1.4 1.4 1.4 1.4 1.4 1.4 1.4 1.4 1.4 1.4 1.4 1.4 1.4 1.4 1.4 1.4 1.4 1.4 1.4 1.4 1.4 1.4 1.4 1.4 1.4 1.4 1.4 1.4 1.4 1.4 1.4 1.4 1.4 1.4 1.4 1.4 1.4 1.4 1.4 1.4 1.4 1.4 1.4 1.4 1.4 1.4 1.4 1.4 1.4 1.4 1.4 1.4 </DataArray>
</PointData>
<CellData/>
</Piece>
</UnstructuredGrid>
</VTKFile>
