<?xml version="1.0" ?>
<VTKFile byte_order="LittleEndian" type="UnstructuredGrid" version="0.1">
<UnstructuredGrid>
<Piece NumberOfCells="0" NumberOfPoints="384">
<Points>
<DataArray NumberOfComponents="3" format="ascii" type="Float32">37.012124673228904 10.151577964313242 2 51.630785076072065 16.423319445143825 2 67.744349658193357 13.827376337926882 2 75.413878994135558 16.546919153517919 2 91.356797225761994 8.4219079626834663 2 93.156822134547681 1.4 2 43.29231609048324 8.807538626335587 2 55.369479946014515 3.668320454688486 2 73.963147387478017 11.06793937889428 2 80.509776886140997 2.9740505475135506 2 86.276538592524872 1.4 2 98.6 8.2302567518740251 2 40.696943432132969 7.8980247438864879 2 53.260697052940579 8.47338436353877 2 67.723184799232428 4.2051734936346756 2 82.827920586102735 11.693631643415268 2 87.327969654076597 1.4 2 92.796922831287745 12.418059130785432 2 41.113215106139407 2.6465739909627222 2 59.514981725015303 7.6147504772229944 2 70.894386630287968 10.479504211460529 2 75.189677582178504 1.4 2 87.960698254096911 19.056290943606331 2 97.171166627724318 3.7245755974043391 2 36.025293725729348 3.9878517507838875 2 52.254797934369584 18.705690383894979 2 66.528720236105997 19.624962932408014 2 77.19301507702319 12.575088301303838 2 87.798543564527037 12.966876417305718 2 94.681265446817108 8.6014289209411068 2 42.064171589215341 16.051298829274767 2 54.50005968753257 7.6595441055496112 2 71.376604113585543 3.9830769761876166 2 77.322027357515964 7.2046623156043967 2 79.904871204489467 1.4 2 98.6 18.792485033908594 2 38.960437129134263 11.477138824493215 2 54.653586813394284 4.8978893893731499 2 66.84774045004572 5.404453339956075 2 82.439592130809842 10.046595344388676 2 87.259004409626968 8.0209283742587427 2 93.479443162001289 16.379336497851678 2 39.645613983763447 4.8538481037401775 2 57.434817090633004 1.4 2 72.581120495604864 20.019238024536119 2 76.406545057042123 1.4 2 84.49012312713019 8.2931296745686875 2 94.893592006003402 2.3556386798828308 2 35.673366166592068 5.476081154044202 2 50.047142488134376 10.488462883127346 2 67.159160446736308 15.704242731765728 2 77.264722093028169 10.691327506050337 2 89.456627813862241 10.352966066792229 2 91.915129288878134 1.4 2 44.65063724594846 14.287644330835018 2 53.93924287976008 1.4 2 72.92367768243632 5.3353714360878959 2 80.327324641076601 5.4784425382828772 2 85.833535010149916 3.4222048254702853 2 96.688162616083844 9.9888962957317098 2 38.845029789576031 10.041917788608503 2 50.709753396237758 6.4075298132870886 2 71.759268638776078 5.2383461520820553 2 81.700131456150288 17.848653835185125 2 90.129770248097614 4.1403106272473877 2 89.907539470974612 15.744132568924107 2 43.059494120392976 5.2848785158540661 2 56.767462159780678 8.005773902699584 2 69.260096035175351 13.528112333715585 2 75.0074871037354 5.4681770869051425 2 84.614233620322793 13.302508876419918 2 98.6 3.3113057145869416 2 36.960684384345036 5.5193856952976557 2 56.120137318245142 21.886739266020609 2 64.801925364915036 13.101201529388169 2 80.150974404498157 19.595742294985651 2 90.035702951615235 17.926079016398482 2 93.556265772570242 5.8345493235578827 2 41.34713187407192 12.291934824331019 2 53.939407951023725 11.271127221219837 2 71.481176838832923 1.4 2 78.596425553135944 10.786708589401005 2 83.680349199801768 3.531704584753907 2 98.6 14.098735975362416 2 40.075663482597321 19.878877417639938 2 51.734512499390512 1.4 2 70.690872184057753 7.6431524568949074 2 79.197663875953708 15.13471016107435 2 89.010217779512374 8.9823576947097798 2 97.092953067874191 11.564407649853537 2 39.483398417700762 2.405545989865864 2 59.138627538788562 4.0282218114240171 2 72.609566404070208 13.651333971146055 2 78.230526126375537 6.1347092321803025 2 83.920447215201079 5.1437363106161413 2 95.187952777780396 5.010984219686117 2 35.650084673364255 9.899166846698682 2 52.571780751784082 14.33425587694679 2 66.095596748086976 10.212144107242009 2 75.186529549301127 19.026099677362325 2 92.528478727456744 7.3839828365154219 2 93.727660871998737 3.1789424860832662 2 42.389970534108926 11.138886543050418 2 56.576003113621418 6.1697132946960043 2 75.163286786894332 9.7375438916476114 2 78.72075929897737 1.4 2 84.114922750350843 1.4 2 96.60373617190703 6.2141212729559241 2 39.684076078114863 7.0553357623352104 2 51.383626384621856 10.746330853438481 2 69.418931839077004 2.0613382894958483 2 83.990454955079699 9.6503105732404979 2 89.582810232772374 1.4 2 91.278014459068089 13.070206376434273 2 40.223960852583566 3.7454865176509919 2 59.788928556971015 10.944658185496172 2 72.062379270859836 9.1566340808331166 2 75.984904174016194 2.8900178445354205 2 83.942367205611248 17.289398100799673 2 98.6 6.789507676516612 2 37.046854347789612 1.4 2 53.630311464274989 20.969404517176418 2 65.743370156403856 14.64526444292723 2 77.586717641148738 15.133170095672691 2 88.03273909465571 16.736131250362078 2 92.071108648654985 10.633559589956324 2 43.926117274317058 20.285839962974364 2 55.133689429420478 10.056528964572015 2 72.742835850253982 1.4 2 76.055372858324802 6.5334320060815028 2 83.06507814053144 1.4 2 96.755616887395746 15.185099099102489 2 37.876849877708061 13.655687506529691 2 53.636823504686902 3.7800331536063148 2 69.365059563273178 8.2344168415604759 2 79.620759783932371 11.887466541320022 2 85.834644942659224 9.8869053992213889 2 95.35359610230249 19.093474216012098 2 40.393935999422204 5.8589674506278886 2 56.216134369054856 2.6861855142997793 2 70.301982747450779 15.700698850799608 2 78.226631868612571 4.4405134208309125 2 83.177422070369644 7.7693832247253702 2 97.114015406057234 1.4 2 35.081301164404337 2.8085622158672505 2 52.873671428734802 12.466054557987514 2 68.473248720410339 20.414445363821965 2 75.637489362268383 12.609943718397336 2 90.838515707849652 11.32818049797638 2 91.943934625628728 3.9218786083298616 2 43.252186257925565 14.459575651664798 2 56.273273683777163 1.4 2 73.981682461051676 7.7057310072706597 2 82.256478292340901 2.9175413182832934 2 86.97876027806673 6.5179444126386272 2 95.585362728054193 11.277591071857973 2 38.128741518025699 7.1954073206699283 2 53.190807343954731 5.1432063422702603 2 68.471240483707376 5.5312846724377351 2 84.285285540331117 15.169096063547295 2 87.040932401188115 3.0696863907910008 2 89.639780566969094 12.540193071693164 2 42.38141116782657 2.9250111412679103 2 58.211992254085381 9.3309056057686437 2 70.885407508435776 13.850780650136434 2 74.625467217457 2.7021056830603438 2 86.022837297467575 15.11567340597348 2 98.6 1.4 2 35.696939187200101 7.5493660318253326 2 56.543084378324288 15.893913293620095 2 63.012683553278428 12.816847165939153 2 77.593930086845774 19.520637558711069 2 92.49151917285262 18.570116576727905 2 90.877159904239491 5.3130476031852796 2 41.155834027860472 10.003565375726017 2 55.422749231204619 12.189975545951176 2 69.069954750010183 4.1163623615907081 2 80.598342712664618 7.6002843744294131 2 84.395222264675837 6.4839221879012543 2 98.6 10.85967010719189 2 40.994069152920694 15.063996728045598 2 52.089560435030116 4.0082506742489281 2 69.495735363290706 10.786939085241332 2 81.562627443979693 13.801677622115914 2 89.667676524582831 6.2857758705304363 2 94.995301396341219 14.659730308131991 2 37.776259333542754 2.618400196942682 2 57.949685275126015 6.4679111766606168 2 72.191239507060672 15.531438956723811 2 77.151697374973168 5.3741291078565467 2 81.722044495151735 6.841376805384729 2 95.104556587795983 6.448949897116842 2 37.785047713652951 8.9761248797418514 2 51.250979236430638 14.428317418785147 2 66.491601343973301 12.913862422585741 2 74.444100686035654 14.202915889157916 2 90.36456828238714 7.4887444672053114 2 92.424791611606992 2.7236626233851582 2 42.429255043900227 7.5629173236309963 2 54.374309920869671 2.6611626915490012 2 72.665779571574376 10.425462181218487 2 79.206968547930771 3.0920976380811145 2 85.191644460016377 1.4 2 96.809438402082961 8.8278093422717436 2 41.846233901227592 8.8540757619824593 2 53.858104443721786 9.6698337769267066 2 68.100505728745631 2.9622262642615649 2 81.306058629479452 11.735371619322974 2 88.456458982122086 1.4 2 94.005366957577294 11.777903405717455 2 40.797566959239738 1.4 2 58.04599722834805 7.7594037868792034 2 71.990026965135968 11.961284869091049 2 73.917555233437071 1.4 2 85.663365440981707 19.397088720680465 2 96.533616954884792 2.6341041381004602 2 34.799629217693592 4.1364909740610525 2 54.130988429902047 18.587431477545994 2 66.174754565675002 17.394718571142693 2 78.293969224109318 13.160612616001089 2 86.316038506733278 13.214218146885186 2 93.970474820044927 7.1871963765573534 2 42.897883557257558 18.225806717080868 2 55.514023411676185 6.6617131359142645 2 71.389011556863508 2.7427967643165285 2 77.540838989906717 8.8160404496845253 2 80.967100753136961 1.4 2 96.993750713206836 17.416579501247927 2 39.276920614132258 12.896968055795394 2 54.164672738098851 6.1353335334366275 2 66.847962271773298 6.7476219754085935 2 80.601721874097151 9.0738893281280806 2 87.578547554249681 9.45402512336209 2 91.743573167252208 14.610872020543072 2 38.648205620624438 5.9882277527439971 2 58.050785980336791 2.6943108619488463 2 70.310595037701702 19.213093198602362 2 77.565317615083032 1.4 2 85.858995628429199 8.4198559295925808 2 94.393364530496882 1.4 2 34.735278503371852 6.4724470191752861 2 48.888235766698266 11.67059461015528 2 68.857451483837522 15.649440501466721 2 76.320922501574557 8.7818003246644682 2 88.265498373305647 11.392057644506174 2 90.729342448538162 1.4 2 44.727339922244745 12.444748328011054 2 52.814465597069713 1.4 2 73.639708243088137 6.3836233036046854 2 81.224485802358714 3.9691225623304658 2 86.446641489048432 5.0511475621205228 2 97.4416416129162 7.3676936269173599 2 40.03739644260169 9.234415456341182 2 49.828825334763266 4.7978706418694692 2 70.240707743123238 5.1239678618207325 2 82.477534121605586 15.488094284727907 2 88.291730533931215 3.0898091117959887 2 91.714948173034642 16.486757461013926 2 41.553909373954504 6.6290007249553531 2 55.561663822249848 8.5243712822602991 2 68.547676670242225 12.046485817550845 2 73.647980171250126 3.5819819406132338 2 85.531497515748882 11.77732050942773 2 98.6 5.5881221899532738 2 37.244834623580118 3.8897069734972716 2 58.183163858013906 20.451487305998562 2 64.821553805260038 11.547455887454593 2 79.104089342767892 17.411004796856471 2 90.337023391134082 20.268840317529683 2 92.549202885848885 5.0679378730771933 2 40.468343918445477 13.69671641970594 2 52.584949387460085 10.491139740660248 2 70.30830940523704 1.4 2 79.019008410585215 9.3131636281731858 2 85.220252969817423 4.799901569189724 2 98.6 12.400665364196289 2 41.099875482979201 17.898697005726639 2 51.218820512927316 2.5970279977139374 2 70.477206404791303 9.1116384676870172 2 80.743129439674178 16.020976017380629 2 88.881979487325623 7.6588916003558634 2 96.891540748390369 13.31790584970364 2 39.547497272725849 1.4 2 57.437756380906336 4.8696444176725819 2 73.895098415326572 12.498077200969181 2 79.504866656487138 6.6281110724147574 2 82.690804951030287 4.275274852961922 2 95.643210539743421 3.7522512365178118 2 34.547767710888948 11.178730110987388 2 53.947133562671482 15.024360613498686 2 64.563303621887499 10.030806888431236 2 73.246704725219772 17.835263981057537 2 92.970618191748343 8.6646882976017228 2 94.078706950879308 4.3501072294103746 2 43.444834918465332 12.312771732258511 2 56.019974286389996 4.7976741176122495 2 73.888906522826716 9.1479806090423281 2 77.861261978057854 2.8172574838440747 2 84.72017171540368 2.9036819991435721 2 96.779749048932501 5.0481244445316902 2 38.971569297588239 8.3111850745838023 2 51.906722774608582 8.8961686719753725 2 68.733277201454555 1.4 2 84.301178214066837 11.028084567732829 2 89.589531233964252 2.9159051729594978 2 93.401985683115058 14.195645682671104 2 38.766161846106655 3.5694059177230106 2 59.597991181780174 9.0118090833589743 2 71.626595609976476 6.7058784080840832 2 76.826877840050784 3.7061959187388802 2 83.263652653405714 19.675068055279628 2 98.6 4.431158940716645 2 38.287508021420393 1.4 2 55.888225471756428 19.527844031669392 2 64.725423755707553 15.775651222130405 2 76.119336575629831 14.503512499144399 2 87.758277483838938 14.886051010101175 2 93.287353832089067 10.060655907971224 2 41.873155991967252 20.580800500957945 2 56.263470848257072 10.917920643648136 2 72.693536248699246 2.8254633114687544 2 75.356069880833559 7.6001014838838898 2 82.074776771248665 1.4 2 98.6 16.134042296370211 2 38.760214178623535 14.864381730337453 2 52.777687072823241 2.8958836148477483 2 68.52396345090763 6.8003326855135127 2 80.5853719392626 10.420713550346354 2 86.92830168082105 10.868352592907057 2 95.06038387539617 16.819191494330106 2 41.75171603397331 5.3620233590555584 2 57.266694173154242 3.6385412831120627 2 71.090206810084155 17.420775005131102 2 79.480515080081446 4.5046291153795002 2 82.11647382800308 8.7007538043660677 2 95.89141790736538 1.4 2 33.771169900263821 2.7331920467333339 2 51.50780874058092 12.498527261118269 2 68.473532002829998 17.758239119273657 2 75.85467963729549 10.970205752839911 2 90.766730867752116 9.5067922146414627 2 90.96412580387566 2.9727196233028059 2 42.254703279782881 13.449689610444006 2 55.093113261936132 1.4 2 72.520713817673226 7.7702958358795451 2 81.702595708261939 5.4125042554088036 2 88.251228143023184 6.1632212655931129 2 94.890382760237415 9.9449742097722673 2 36.546316827430928 8.4736645198660945 2 53.096068220109693 7.059115052827555 2 69.932096512105559 6.3666057330957484 2 83.157583055164238 13.268733498027554 2 87.694966493405744 4.4728434976340274 2 89.48614232395866 14.18182519359306 2 41.485221663136969 4.0482607030189719 2 56.858887975269226 9.6262083875508235 2 70.48315726256385 12.124688454172484 2 74.221067996668395 4.5130378233321382 2 86.044259339668713 17.110836048297617 2 98.6 2.0209472367997416 2 36.835445573607849 6.8407648759661228 2 57.056952615111733 17.945955854709947 2 63.40025815070981 14.298945634381528 2 77.082167484918259 17.130280843889238 2 93.47469903420118 20.65983484862306 2 91.591262464428127 6.3587086307607414 2 40.435094824619441 11.198297252906048 2 54.17303085004017 13.066575499995945 2 70.109669490915707 3.5082002288008423 2 78.88039659004869 7.9313153591453665 2 85.657868304470981 6.7507631371817656 2 98.6 9.5404254223361207 2 39.777040884749333 16.14479313221733 2 51.279695404494255 5.0925685206526783 2 68.501261812233807 9.3255004513272901 2 80.099288033804967 13.578149890599756 2 88.980587458452518 4.8887553103873165 2 95.202495770716922 12.992258379567124 2 38.167563717737849 4.7894459437415753 2 58.708274307074916 5.2565638934282806 2 73.814396996829416 15.871848317308787 2 75.901051416602641 4.6885635323120072 2 82.954461362564658 6.2268535900396396 2 95.863891077768514 7.7004189253894806 2 </DataArray>
</Points>
<Cells>
<DataArray Name="connectivity" format="ascii" type="Int32">0</DataArray>
<DataArray Name="offsets" format="ascii" type="Int32">0</DataArray>
<DataArray Name="types" format="ascii" type="UInt8">1</DataArray>
</Cells>
<PointData>
<DataArray Name="Points" NumberOfComponents="3" format="ascii" type="Float32">37.012124673228904 10.151577964313242 2 51.630785076072065 16.423319445143825 2 67.744349658193357 13.827376337926882 2 75.413878994135558 16.546919153517919 2 91.356797225761994 8.4219079626834663 2 93.156822134547681 1.4 2 43.29231609048324 8.807538626335587 2 55.369479946014515 3.668320454688486 2 73.963147387478017 11.06793937889428 2 80.509776886140997 2.9740505475135506 2 86.276538592524872 1.4 2 98.6 8.2302567518740251 2 40.696943432132969 7.8980247438864879 2 53.260697052940579 8.47338436353877 2 67.723184799232428 4.2051734936346756 2 82.827920586102735 11.693631643415268 2 87.327969654076597 1.4 2 92.796922831287745 12.418059130785432 2 41.113215106139407 2.6465739909627222 2 59.514981725015303 7.6147504772229944 2 70.894386630287968 10.479504211460529 2 75.189677582178504 1.4 2 87.960698254096911 19.056290943606331 2 97.171166627724318 3.7245755974043391 2 36.025293725729348 3.9878517507838875 2 52.254797934369584 18.705690383894979 2 66.528720236105997 19.624962932408014 2 77.19301507702319 12.575088301303838 2 87.798543564527037 12.966876417305718 2 94.681265446817108 8.6014289209411068 2 42.064171589215341 16.051298829274767 2 54.50005968753257 7.6595441055496112 2 71.376604113585543 3.9830769761876166 2 77.322027357515964 7.2046623156043967 2 79.904871204489467 1.4 2 98.6 18.792485033908594 2 38.960437129134263 11.477138824493215 2 54.653586813394284 4.8978893893731499 2 66.84774045004572 5.404453339956075 2 82.439592130809842 10.046595344388676 2 87.259004409626968 8.0209283742587427 2 93.479443162001289 16.379336497851678 2 39.645613983763447 4.8538481037401775 2 57.434817090633004 1.4 2 72.581120495604864 20.019238024536119 2 76.406545057042123 1.4 2 84.49012312713019 8.2931296745686875 2 94.893592006003402 2.3556386798828308 2 35.673366166592068 5.476081154044202 2 50.047142488134376 10.488462883127346 2 67.159160446736308 15.704242731765728 2 77.264722093028169 10.691327506050337 2 89.456627813862241 10.352966066792229 2 91.915129288878134 1.4 2 44.65063724594846 14.287644330835018 2 53.93924287976008 1.4 2 72.92367768243632 5.3353714360878959 2 80.327324641076601 5.4784425382828772 2 85.833535010149916 3.4222048254702853 2 96.688162616083844 9.9888962957317098 2 38.845029789576031 10.041917788608503 2 50.709753396237758 6.4075298132870886 2 71.759268638776078 5.2383461520820553 2 81.700131456150288 17.848653835185125 2 90.129770248097614 4.1403106272473877 2 89.907539470974612 15.744132568924107 2 43.059494120392976 5.2848785158540661 2 56.767462159780678 8.005773902699584 2 69.260096035175351 13.528112333715585 2 75.0074871037354 5.4681770869051425 2 84.614233620322793 13.302508876419918 2 98.6 3.3113057145869416 2 36.960684384345036 5.5193856952976557 2 56.120137318245142 21.886739266020609 2 64.801925364915036 13.101201529388169 2 80.150974404498157 19.595742294985651 2 90.035702951615235 17.926079016398482 2 93.556265772570242 5.8345493235578827 2 41.34713187407192 12.291934824331019 2 53.939407951023725 11.271127221219837 2 71.481176838832923 1.4 2 78.596425553135944 10.786708589401005 2 83.680349199801768 3.531704584753907 2 98.6 14.098735975362416 2 40.075663482597321 19.878877417639938 2 51.734512499390512 1.4 2 70.690872184057753 7.6431524568949074 2 79.197663875953708 15.13471016107435 2 89.010217779512374 8.9823576947097798 2 97.092953067874191 11.564407649853537 2 39.483398417700762 2.405545989865864 2 59.138627538788562 4.0282218114240171 2 72.609566404070208 13.651333971146055 2 78.230526126375537 6.1347092321803025 2 83.920447215201079 5.1437363106161413 2 95.187952777780396 5.010984219686117 2 35.650084673364255 9.899166846698682 2 52.571780751784082 14.33425587694679 2 66.095596748086976 10.212144107242009 2 75.186529549301127 19.026099677362325 2 92.528478727456744 7.3839828365154219 2 93.727660871998737 3.1789424860832662 2 42.389970534108926 11.138886543050418 2 56.576003113621418 6.1697132946960043 2 75.163286786894332 9.7375438916476114 2 78.72075929897737 1.4 2 84.114922750350843 1.4 2 96.60373617190703 6.2141212729559241 2 39.684076078114863 7.0553357623352104 2 51.383626384621856 10.746330853438481 2 69.418931839077004 2.0613382894958483 2 83.990454955079699 9.6503105732404979 2 89.582810232772374 1.4 2 91.278014459068089 13.070206376434273 2 40.223960852583566 3.7454865176509919 2 59.788928556971015 10.944658185496172 2 72.062379270859836 9.1566340808331166 2 75.984904174016194 2.8900178445354205 2 83.942367205611248 17.289398100799673 2 98.6 6.789507676516612 2 37.046854347789612 1.4 2 53.630311464274989 20.969404517176418 2 65.743370156403856 14.64526444292723 2 77.586717641148738 15.133170095672691 2 88.03273909465571 16.736131250362078 2 92.071108648654985 10.633559589956324 2 43.926117274317058 20.285839962974364 2 55.133689429420478 10.056528964572015 2 72.742835850253982 1.4 2 76.055372858324802 6.5334320060815028 2 83.06507814053144 1.4 2 96.755616887395746 15.185099099102489 2 37.876849877708061 13.655687506529691 2 53.636823504686902 3.7800331536063148 2 69.365059563273178 8.2344168415604759 2 79.620759783932371 11.887466541320022 2 85.834644942659224 9.8869053992213889 2 95.35359610230249 19.093474216012098 2 40.393935999422204 5.8589674506278886 2 56.216134369054856 2.6861855142997793 2 70.301982747450779 15.700698850799608 2 78.226631868612571 4.4405134208309125 2 83.177422070369644 7.7693832247253702 2 97.114015406057234 1.4 2 35.081301164404337 2.8085622158672505 2 52.873671428734802 12.466054557987514 2 68.473248720410339 20.414445363821965 2 75.637489362268383 12.609943718397336 2 90.838515707849652 11.32818049797638 2 91.943934625628728 3.9218786083298616 2 43.252186257925565 14.459575651664798 2 56.273273683777163 1.4 2 73.981682461051676 7.7057310072706597 2 82.256478292340901 2.9175413182832934 2 86.97876027806673 6.5179444126386272 2 95.585362728054193 11.277591071857973 2 38.128741518025699 7.1954073206699283 2 53.190807343954731 5.1432063422702603 2 68.471240483707376 5.5312846724377351 2 84.285285540331117 15.169096063547295 2 87.040932401188115 3.0696863907910008 2 89.639780566969094 12.540193071693164 2 42.38141116782657 2.9250111412679103 2 58.211992254085381 9.3309056057686437 2 70.885407508435776 13.850780650136434 2 74.625467217457 2.7021056830603438 2 86.022837297467575 15.11567340597348 2 98.6 1.4 2 35.696939187200101 7.5493660318253326 2 56.543084378324288 15.893913293620095 2 63.012683553278428 12.816847165939153 2 77.593930086845774 19.520637558711069 2 92.49151917285262 18.570116576727905 2 90.877159904239491 5.3130476031852796 2 41.155834027860472 10.003565375726017 2 55.422749231204619 12.189975545951176 2 69.069954750010183 4.1163623615907081 2 80.598342712664618 7.6002843744294131 2 84.395222264675837 6.4839221879012543 2 98.6 10.85967010719189 2 40.994069152920694 15.063996728045598 2 52.089560435030116 4.0082506742489281 2 69.495735363290706 10.786939085241332 2 81.562627443979693 13.801677622115914 2 89.667676524582831 6.2857758705304363 2 94.995301396341219 14.659730308131991 2 37.776259333542754 2.618400196942682 2 57.949685275126015 6.4679111766606168 2 72.191239507060672 15.531438956723811 2 77.151697374973168 5.3741291078565467 2 81.722044495151735 6.841376805384729 2 95.104556587795983 6.448949897116842 2 37.785047713652951 8.9761248797418514 2 51.250979236430638 14.428317418785147 2 66.491601343973301 12.913862422585741 2 74.444100686035654 14.202915889157916 2 90.36456828238714 7.4887444672053114 2 92.424791611606992 2.7236626233851582 2 42.429255043900227 7.5629173236309963 2 54.374309920869671 2.6611626915490012 2 72.665779571574376 10.425462181218487 2 79.206968547930771 3.0920976380811145 2 85.191644460016377 1.4 2 96.809438402082961 8.8278093422717436 2 41.846233901227592 8.8540757619824593 2 53.858104443721786 9.6698337769267066 2 68.100505728745631 2.9622262642615649 2 81.306058629479452 11.735371619322974 2 88.456458982122086 1.4 2 94.005366957577294 11.777903405717455 2 40.797566959239738 1.4 2 58.04599722834805 7.7594037868792034 2 71.990026965135968 11.961284869091049 2 73.917555233437071 1.4 2 85.663365440981707 19.397088720680465 2 96.533616954884792 2.6341041381004602 2 34.799629217693592 4.1364909740610525 2 54.130988429902047 18.587431477545994 2 66.174754565675002 17.394718571142693 2 78.293969224109318 13.160612616001089 2 86.316038506733278 13.214218146885186 2 93.970474820044927 7.1871963765573534 2 42.897883557257558 18.225806717080868 2 55.514023411676185 6.6617131359142645 2 71.389011556863508 2.7427967643165285 2 77.540838989906717 8.8160404496845253 2 80.967100753136961 1.4 2 96.993750713206836 17.416579501247927 2 39.276920614132258 12.896968055795394 2 54.164672738098851 6.1353335334366275 2 66.847962271773298 6.7476219754085935 2 80.601721874097151 9.0738893281280806 2 87.578547554249681 9.45402512336209 2 91.743573167252208 14.610872020543072 2 38.648205620624438 5.9882277527439971 2 58.050785980336791 2.6943108619488463 2 70.310595037701702 19.213093198602362 2 77.565317615083032 1.4 2 85.858995628429199 8.4198559295925808 2 94.393364530496882 1.4 2 34.735278503371852 6.4724470191752861 2 48.888235766698266 11.67059461015528 2 68.857451483837522 15.649440501466721 2 76.320922501574557 8.7818003246644682 2 88.265498373305647 11.392057644506174 2 90.729342448538162 1.4 2 44.727339922244745 12.444748328011054 2 52.814465597069713 1.4 2 73.639708243088137 6.3836233036046854 2 81.224485802358714 3.9691225623304658 2 86.446641489048432 5.0511475621205228 2 97.4416416129162 7.3676936269173599 2 40.03739644260169 9.234415456341182 2 49.828825334763266 4.7978706418694692 2 70.240707743123238 5.1239678618207325 2 82.477534121605586 15.488094284727907 2 88.291730533931215 3.0898091117959887 2 91.714948173034642 16.486757461013926 2 41.553909373954504 6.6290007249553531 2 55.561663822249848 8.5243712822602991 2 68.547676670242225 12.046485817550845 2 73.647980171250126 3.5819819406132338 2 85.531497515748882 11.77732050942773 2 98.6 5.5881221899532738 2 37.244834623580118 3.8897069734972716 2 58.183163858013906 20.451487305998562 2 64.821553805260038 11.547455887454593 2 79.104089342767892 17.411004796856471 2 90.337023391134082 20.268840317529683 2 92.549202885848885 5.0679378730771933 2 40.468343918445477 13.69671641970594 2 52.584949387460085 10.491139740660248 2 70.30830940523704 1.4 2 79.019008410585215 9.3131636281731858 2 85.220252969817423 4.799901569189724 2 98.6 12.400665364196289 2 41.099875482979201 17.898697005726639 2 51.218820512927316 2.5970279977139374 2 70.477206404791303 9.1116384676870172 2 80.743129439674178 16.020976017380629 2 88.881979487325623 7.6588916003558634 2 96.891540748390369 13.31790584970364 2 39.547497272725849 1.4 2 57.437756380906336 4.8696444176725819 2 73.895098415326572 12.498077200969181 2 79.504866656487138 6.6281110724147574 2 82.690804951030287 4.275274852961922 2 95.643210539743421 3.7522512365178118 2 34.547767710888948 11.178730110987388 2 53.947133562671482 15.024360613498686 2 64.563303621887499 10.030806888431236 2 73.246704725219772 17.835263981057537 2 92.970618191748343 8.6646882976017228 2 94.078706950879308 4.3501072294103746 2 43.444834918465332 12.312771732258511 2 56.019974286389996 4.7976741176122495 2 73.888906522826716 9.1479806090423281 2 77.861261978057854 2.8172574838440747 2 84.72017171540368 2.9036819991435721 2 96.779749048932501 5.0481244445316902 2 38.971569297588239 8.3111850745838023 2 51.906722774608582 8.8961686719753725 2 68.733277201454555 1.4 2 84.301178214066837 11.028084567732829 2 89.589531233964252 2.9159051729594978 2 93.401985683115058 14.195645682671104 2 38.766161846106655 3.5694059177230106 2 59.597991181780174 9.0118090833589743 2 71.626595609976476 6.7058784080840832 2 76.826877840050784 3.7061959187388802 2 83.263652653405714 19.675068055279628 2 98.6 4.431158940716645 2 38.287508021420393 1.4 2 55.888225471756428 19.527844031669392 2 64.725423755707553 15.775651222130405 2 76.119336575629831 14.503512499144399 2 87.758277483838938 14.886051010101175 2 93.287353832089067 10.060655907971224 2 41.873155991967252 20.580800500957945 2 56.263470848257072 10.917920643648136 2 72.693536248699246 2.8254633114687544 2 75.356069880833559 7.6001014838838898 2 82.074776771248665 1.4 2 98.6 16.134042296370211 2 38.760214178623535 14.864381730337453 2 52.777687072823241 2.8958836148477483 2 68.52396345090763 6.8003326855135127 2 80.5853719392626 10.420713550346354 2 86.92830168082105 10.868352592907057 2 95.06038387539617 16.819191494330106 2 41.75171603397331 5.3620233590555584 2 57.266694173154242 3.6385412831120627 2 71.090206810084155 17.420775005131102 2 79.480515080081446 4.5046291153795002 2 82.11647382800308 8.7007538043660677 2 95.89141790736538 1.4 2 33.771169900263821 2.7331920467333339 2 51.50780874058092 12.498527261118269 2 68.473532002829998 17.758239119273657 2 75.85467963729549 10.970205752839911 2 90.766730867752116 9.5067922146414627 2 90.96412580387566 2.9727196233028059 2 42.254703279782881 13.449689610444006 2 55.093113261936132 1.4 2 72.520713817673226 7.7702958358795451 2 81.702595708261939 5.4125042554088036 2 88.251228143023184 6.1632212655931129 2 94.890382760237415 9.9449742097722673 2 36.546316827430928 8.4736645198660945 2 53.096068220109693 7.059115052827555 2 69.932096512105559 6.3666057330957484 2 83.157583055164238 13.268733498027554 2 87.694966493405744 4.4728434976340274 2 89.48614232395866 14.18182519359306 2 41.485221663136969 4.0482607030189719 2 56.858887975269226 9.6262083875508235 2 70.48315726256385 12.124688454172484 2 74.221067996668395 4.5130378233321382 2 86.044259339668713 17.110836048297617 2 98.6 2.0209472367997416 2 36.835445573607849 6.8407648759661228 2 57.056952615111733 17.945955854709947 2 63.40025815070981 14.298945634381528 2 77.082167484918259 17.130280843889238 2 93.47469903420118 20.65983484862306 2 91.591262464428127 6.3587086307607414 2 40.435094824619441 11.198297252906048 2 54.17303085004017 13.066575499995945 2 70.109669490915707 3.5082002288008423 2 78.88039659004869 7.9313153591453665 2 85.657868304470981 6.7507631371817656 2 98.6 9.5404254223361207 2 39.777040884749333 16.14479313221733 2 51.279695404494255 5.0925685206526783 2 68.501261812233807 9.3255004513272901 2 80.099288033804967 13.578149890599756 2 88.980587458452518 4.8887553103873165 2 95.202495770716922 12.992258379567124 2 38.167563717737849 4.7894459437415753 2 58.708274307074916 5.2565638934282806 2 73.814396996829416 15.871848317308787 2 75.901051416602641 4.6885635323120072 2 82.954461362564658 6.2268535900396396 2 95.863891077768514 7.7004189253894806 2 </DataArray>