<?xml version="1.0" ?>
<VTKFile byte_order="LittleEndian" type="UnstructuredGrid" version="0.1">
<UnstructuredGrid>
<Piece NumberOfCells="0" NumberOfPoints="273">
<Points>
<DataArray NumberOfComponents="3" format="ascii" type="Float32">0 0 0 6.7985432769202916 3.5136937511068704 2 15.913509859117731 1.2799357228216868 2 24.657320469244457 9.3187101153527099 2 32.547301692916541 1.2799357228216868 2 36.319326365737112 12.866219952490789 2 44.905802617955544 3.4386282306225766 2 44.277279290003833 11.041244403040952 2 52.631785182245331 1.2799357228216868 2 54.029224325751336 5.4667078644474074 2 61.536523400238046 6.9636297283924673 2 71.223148447505537 1.2799357228216868 2 73.991812939025621 12.53791698687411 2 75.061848238792862 7.7406051817650043 2 81.651147764983563 9.5760128856540465 2 87.796759789936132 4.8453542239989957 2 89.568080711426248 10.044609270013247 2 93.458298692530335 6.5522897546325138 2 3.815718839390549 1.2799357228216868 2 14.117953875465966 1.2799357228216868 2 23.007321016507476 3.1517411636677948 2 33.153489125322508 13.901974033754762 2 37.180465072899608 2.6775761959608566 2 41.004221822651566 10.24607480411448 2 49.435206045461321 1.2799357228216868 2 50.251212392176889 10.663793556765452 2 58.514636597781873 9.6981277521094 2 62.379820158960342 3.3108438609608997 2 69.69914338537167 11.532006041254414 2 71.493721021113458 7.4208719455666721 2 80.54150920297937 1.2799357228216868 2 83.35541512594493 3.497471743922087 2 85.509115625131386 11.715333265372223 2 92.724205873131595 1.2799357228216868 2 92.580798548333007 13.050242274816517 2 6.4444575318482231 7.7162413863302346 2 16.034226820477723 8.2897443120050607 2 23.952716219013176 4.8583065275533546 2 32.0114363238431 7.5928857236971901 2 39.044383328224022 10.160265584902033 2 41.522547786801638 3.112471510056062 2 49.120327246009843 8.6081309182860526 2 52.572646456302863 3.1638044756584724 2 55.826733533826534 1.2799357228216868 2 66.613277343034966 12.099605684543262 2 65.89234628565994 3.4630471268178917 2 76.235014328592641 12.511673786461978 2 79.095602580553305 13.449312078529665 2 78.956288272062125 5.2539439262594989 2 86.736199372213974 1.2799357228216868 2 86.537305846092309 9.4713292644094889 2 94.238224171490657 1.2799357228216868 2 5.4728909875143668 5.5269496490686745 2 13.637106213304843 8.3812969915459163 2 22.073426476877639 5.4048235094042782 2 35.460005434549579 5.8686604932805224 2 33.754155739095353 4.533338171633023 2 46.15414730467856 1.2799357228216868 2 46.214551183155486 4.9060114703709266 2 52.680329114829107 10.574646231249039 2 57.93263840643796 5.1264367858876199 2 60.587061509757412 2.8688764445694592 2 67.27824015385697 4.8152565739130724 2 72.856317871706011 3.007331553039637 2 74.787481850941319 2.9856908108684461 2 81.516582294091251 2.8905085858171717 2 86.955352994361093 7.2340059819388562 2 88.592298186641784 6.4021020888384115 2 93.24289119098367 10.651843690664331 2 7.6728853210644115 5.724425603632219 2 14.795381933086659 3.8847039195313915 2 21.409879383871417 7.5623388124400153 2 30.881675140937258 1.2799357228216868 2 36.245850875914883 8.521648505372637 2 41.740137564738738 1.2799357228216868 2 42.228517247494402 12.039025831581929 2 54.08359797841544 3.4290065545628621 2 56.789684659141024 6.696703185020831 2 62.642746869418133 11.55556636675019 2 69.597112086256701 1.2799357228216868 2 73.40084785780752 8.1637920342369057 2 73.953240221461357 4.4556148990871902 2 83.819053463194138 13.320705806308544 2 89.446646468326335 3.4924971697892593 2 91.342316603321649 9.1035147419783264 2 91.648826019141367 6.6327621281404916 2 1.2799357228216868 4.4388335383133493 2 12.051722384864805 1.2799357228216868 2 19.978886959998444 1.2799357228216868 2 33.331637058566749 9.2504706530126306 2 35.960232070160778 4.0781326355322696 2 44.565905801192343 8.2081475268165232 2 50.127576813672484 4.8580631975773532 2 51.367450506399244 8.8252314278502126 2 56.282438329051892 13.715392998669584 2 64.18622111777907 5.1483253312135293 2 70.149738673291438 9.3576901893934963 2 69.553417252567343 4.5981999543321725 2 78.238903973258601 2.9818312747902285 2 80.982790451130796 7.3109599281009618 2 83.083595788094712 11.078301880606261 2 93.610808944911653 4.8874846040061675 2 94.068385999192785 14.999092470339448 2 9.6023357291827871 8.4337755822529274 2 18.104707833702474 4.9799870884574444 2 25.255371900561698 1.2799357228216868 2 31.251928766323964 3.4959392400747737 2 40.416283256140197 8.223856876458056 2 42.701560443072545 7.3538616304262838 2 46.510193521610852 12.296862295309532 2 51.025310006973285 1.2799357228216868 2 59.148854248181031 1.2799357228216868 2 63.434613735288963 6.9229315413566104 2 67.93361929971185 1.2799357228216868 2 73.434325269983859 15.191715560966239 2 75.917687340789342 10.172482499648051 2 78.107432309450786 9.4582729998997603 2 87.924889136727472 2.9931871695626411 2 87.97741253406933 14.056493814922074 2 97.095376329467385 1.2799357228216868 2 4.0680870315296112 7.5123106075746966 2 11.663370015878511 7.2822432688906282 2 19.992317465195647 5.7394107191831409 2 37.069177964276982 6.5523082549339033 2 36.148656320218215 1.2799357228216868 2 46.786817947540456 3.0244015952723848 2 46.986425351076953 8.2927988158503254 2 54.907574269132503 10.052324525028677 2 58.467869782103797 7.5394671306578793 2 60.51477503193734 4.7428847132581415 2 69.210811177885603 7.7481044589141401 2 72.875293508043598 1.2799357228216868 2 76.274235637534943 3.3792827544250961 2 79.885538575300899 3.4409405142051366 2 84.879269104582818 3.620891009259009 2 91.748218561472385 4.7993172456585569 2 97.011800280168373 7.0470655055167191 2 5.8989327817481199 1.2799357228216868 2 16.73792372824029 3.3618505855365792 2 23.718811891173676 7.1691179940054894 2 32.74432567324012 3.0380361824398765 2 37.177893103517441 10.668063372272773 2 43.322734482625968 3.2635780714423448 2 44.319616771805549 13.392708017537643 2 54.200905860545561 1.2799357228216868 2 53.589220893214822 8.5349455482682881 2 62.695879993208976 9.1235573966486356 2 71.208988947934813 3.1807963575021105 2 71.961444067181347 11.417022040153583 2 76.863516375184801 6.3431496380336414 2 80.008391021081508 11.069911693225393 2 86.205598449845624 5.4566340127931925 2 91.352657561936468 11.278070773601815 2 95.134272316926001 6.8390298122049105 2 2.7951929574181329 3.1481654025984005 2 13.035833855936273 3.0948384211223607 2 23.577526055168324 1.2799357228216868 2 33.135564964040249 11.604155046245186 2 38.186123678253807 1.2799357228216868 2 42.777654495748195 9.4458508532353367 2 47.780419202819445 1.2799357228216868 2 51.59278152513459 12.616943673733731 2 60.393804432208583 8.4099792433365756 2 62.275677932402935 5.0844113407005151 2 69.216827855009925 13.73247410796861 2 73.326008560499503 6.2473850223644654 2 79.110534483955391 1.2799357228216868 2 81.994829947574004 4.5861329028377487 2 84.523741555849838 9.6369569769459158 2 91.231994010648677 1.2799357228216868 2 90.679136246249115 14.412376388101624 2 7.58144055517322 9.7885242447328746 2 18.163832402488726 7.2766924284484995 2 25.248134837233167 3.1733846978310134 2 33.339500644081767 6.2480948049080904 2 39.688863302915898 12.321417419501682 2 40.470724625730583 4.7042214888900133 2 47.999008363749283 10.479180587374273 2 52.12801029364482 5.01215490153281 2 55.727627601023492 3.0880826785596978 2 65.917782216528849 9.6765928874645812 2 65.702514654951543 5.8683931446152631 2 75.824340708359614 14.732394102445829 2 77.925631908034347 11.436511441228053 2 78.726617447321999 7.1207100930749689 2 85.28755895725557 1.2799357228216868 2 87.692815058448289 11.278206141465725 2 95.61126233863304 3.2365508510622627 2 4.7905507935483609 3.3656210055007723 2 13.30393124121696 10.669275358266232 2 21.02465215208494 3.4879489598826487 2 34.542092869612858 7.7442504902414404 2 34.78931252950796 2.8490428306471656 2 44.738037100559559 1.2799357228216868 2 45.779979513124907 6.6847552630163065 2 54.247342181891867 12.345787234056619 2 57.382582183452918 3.1065900818919774 2 61.002828442442173 1.2799357228216868 2 67.741418749550007 3.049377827062774 2 71.905874273553096 4.9500605223550815 2 76.096531572010122 1.2799357228216868 2 82.247673621089191 1.2799357228216868 2 85.121114721465929 7.6193843913389125 2 88.385599285698945 8.6594025130357934 2 94.542223684352891 8.7315748939397562 2 8.874374708959321 3.7043453713238392 2 14.433607240461061 6.3247348732927398 2 22.4157747862901 9.666379519419241 2 29.647918815146994 2.8441068137906096 2 38.255290167397781 8.2963750315630751 2 43.258635032573032 1.2799357228216868 2 41.196111929320764 14.210248026455718 2 55.849688032244572 4.9680391109334998 2 54.998765067463665 7.2679922943160999 2 64.478399835003756 10.879121229611361 2 69.478772065715916 2.9949275687409966 2 73.999423774824635 10.181585756449671 2 75.348023001290727 5.4433311492189658 2 81.463696416474633 12.783036318780949 2 90.006202445250494 5.2534524782191072 2 92.847111749592088 8.3672950992647053 2 90.111265515863764 7.5853615832478889 2 3.2883295801218448 5.3386468208182034 2 10.13605396707581 1.2799357228216868 2 21.738736811163314 1.2799357228216868 2 35.096524476816938 10.466277453357893 2 37.715956122772162 4.728016285582048 2 44.156150808469505 5.6513018055562805 2 48.979453589213939 2.9610265144093035 2 52.577357176928153 6.9455839670186768 2 56.667652534145446 11.332171029608638 2 64.163693988565186 3.4639915622730011 2 71.951537725705663 9.4707535615771157 2 70.539082645813735 6.0480305714808198 2 77.491763807777559 1.2799357228216868 2 82.62816797228362 6.2592548080961317 2 83.079347128634879 8.1396749892684745 2 94.145382087408194 3.1166156412394557 2 94.699624666395252 12.7042657241785 2 9.8431658809441007 5.9506195675929554 2 16.300268897647683 5.7708396341393495 2 26.929348935938474 1.2799357228216868 2 31.573856240945755 5.2711688327598347 2 41.085108968767663 6.466825372270808 2 42.526286204699794 5.0369069905594648 2 49.004835721960028 12.700419461215247 2 50.865220993323717 3.1246229471432212 2 57.524831551087523 1.2799357228216868 2 64.737100579793108 8.0567463467248093 2 66.325711967626432 1.2799357228216868 2 71.688609698682242 13.589395622798277 2 76.778642010768564 8.2146655914765141 2 79.797791144872903 8.8039867401534888 2 88.32225393469696 1.2799357228216868 2 89.570870041962905 12.372833129796032 2 95.703989498014806 1.2799357228216868 2 2.9345163175343107 9.5983992045672704 2 12.653806256791981 5.2568302178897097 2 19.147174972751397 3.3682329828516373 2 39.086305272073282 6.2266153327346343 2 34.284049966010343 1.2799357228216868 2 48.188367785030877 4.4778607834758377 2 45.894332531639748 9.947764380882381 2 56.589865435601332 8.87032703280852 2 59.624532125678108 6.1023040627554916 2 58.959129093744615 3.4778971027026624 2 68.352959020316817 6.0578756375888236 2 74.48113493596972 1.2799357228216868 2 77.442331842682208 4.637383539044337 2 80.525193902285494 5.4753918725269912 2 86.259727297120222 3.2665340131627887 2 92.572009272277654 3.089686560034079 2 96.463239111439677 8.5803067068559677 2 </DataArray>
</Points>
<Cells>
<DataArray Name="connectivity" format="ascii" type="Int32">0</DataArray>
<DataArray Name="offsets" format="ascii" type="Int32">0</DataArray>
<DataArray Name="types" format="ascii" type="UInt8">1</DataArray>
</Cells>
<PointData>
<DataArray Name="Points" NumberOfComponents="3" format="ascii" type="Float32">0 0 0 6.7985432769202916 3.5136937511068704 2 15.913509859117731 1.2799357228216868 2 24.657320469244457 9.3187101153527099 2 32.547301692916541 1.2799357228216868 2 36.319326365737112 12.866219952490789 2 44.905802617955544 3.4386282306225766 2 44.277279290003833 11.041244403040952 2 52.631785182245331 1.2799357228216868 2 54.029224325751336 5.4667078644474074 2 61.536523400238046 6.9636297283924673 2 71.223148447505537 1.2799357228216868 2 73.991812939025621 12.53791698687411 2 75.061848238792862 7.7406051817650043 2 81.651147764983563 9.5760128856540465 2 87.796759789936132 4.8453542239989957 2 89.568080711426248 10.044609270013247 2 93.458298692530335 6.5522897546325138 2 3.815718839390549 1.2799357228216868 2 14.117953875465966 1.2799357228216868 2 23.007321016507476 3.1517411636677948 2 33.153489125322508 13.901974033754762 2 37.180465072899608 2.6775761959608566 2 41.004221822651566 10.24607480411448 2 49.435206045461321 1.2799357228216868 2 50.251212392176889 10.663793556765452 2 58.514636597781873 9.6981277521094 2 62.379820158960342 3.3108438609608997 2 69.69914338537167 11.532006041254414 2 71.493721021113458 7.4208719455666721 2 80.54150920297937 1.2799357228216868 2 83.35541512594493 3.497471743922087 2 85.509115625131386 11.715333265372223 2 92.724205873131595 1.2799357228216868 2 92.580798548333007 13.050242274816517 2 6.4444575318482231 7.7162413863302346 2 16.034226820477723 8.2897443120050607 2 23.952716219013176 4.8583065275533546 2 32.0114363238431 7.5928857236971901 2 39.044383328224022 10.160265584902033 2 41.522547786801638 3.112471510056062 2 49.120327246009843 8.6081309182860526 2 52.572646456302863 3.1638044756584724 2 55.826733533826534 1.2799357228216868 2 66.613277343034966 12.099605684543262 2 65.89234628565994 3.4630471268178917 2 76.235014328592641 12.511673786461978 2 79.095602580553305 13.449312078529665 2 78.956288272062125 5.2539439262594989 2 86.736199372213974 1.2799357228216868 2 86.537305846092309 9.4713292644094889 2 94.238224171490657 1.2799357228216868 2 5.4728909875143668 5.5269496490686745 2 13.637106213304843 8.3812969915459163 2 22.073426476877639 5.4048235094042782 2 35.460005434549579 5.8686604932805224 2 33.754155739095353 4.533338171633023 2 46.15414730467856 1.2799357228216868 2 46.214551183155486 4.9060114703709266 2 52.680329114829107 10.574646231249039 2 57.93263840643796 5.1264367858876199 2 60.587061509757412 2.8688764445694592 2 67.27824015385697 4.8152565739130724 2 72.856317871706011 3.007331553039637 2 74.787481850941319 2.9856908108684461 2 81.516582294091251 2.8905085858171717 2 86.955352994361093 7.2340059819388562 2 88.592298186641784 6.4021020888384115 2 93.24289119098367 10.651843690664331 2 7.6728853210644115 5.724425603632219 2 14.795381933086659 3.8847039195313915 2 21.409879383871417 7.5623388124400153 2 30.881675140937258 1.2799357228216868 2 36.245850875914883 8.521648505372637 2 41.740137564738738 1.2799357228216868 2 42.228517247494402 12.039025831581929 2 54.08359797841544 3.4290065545628621 2 56.789684659141024 6.696703185020831 2 62.642746869418133 11.55556636675019 2 69.597112086256701 1.2799357228216868 2 73.40084785780752 8.1637920342369057 2 73.953240221461357 4.4556148990871902 2 83.819053463194138 13.320705806308544 2 89.446646468326335 3.4924971697892593 2 91.342316603321649 9.1035147419783264 2 91.648826019141367 6.6327621281404916 2 1.2799357228216868 4.4388335383133493 2 12.051722384864805 1.2799357228216868 2 19.978886959998444 1.2799357228216868 2 33.331637058566749 9.2504706530126306 2 35.960232070160778 4.0781326355322696 2 44.565905801192343 8.2081475268165232 2 50.127576813672484 4.8580631975773532 2 51.367450506399244 8.8252314278502126 2 56.282438329051892 13.715392998669584 2 64.18622111777907 5.1483253312135293 2 70.149738673291438 9.3576901893934963 2 69.553417252567343 4.5981999543321725 2 78.238903973258601 2.9818312747902285 2 80.982790451130796 7.3109599281009618 2 83.083595788094712 11.078301880606261 2 93.610808944911653 4.8874846040061675 2 94.068385999192785 14.999092470339448 2 9.6023357291827871 8.4337755822529274 2 18.104707833702474 4.9799870884574444 2 25.255371900561698 1.2799357228216868 2 31.251928766323964 3.4959392400747737 2 40.416283256140197 8.223856876458056 2 42.701560443072545 7.3538616304262838 2 46.510193521610852 12.296862295309532 2 51.025310006973285 1.2799357228216868 2 59.148854248181031 1.2799357228216868 2 63.434613735288963 6.9229315413566104 2 67.93361929971185 1.2799357228216868 2 73.434325269983859 15.191715560966239 2 75.917687340789342 10.172482499648051 2 78.107432309450786 9.4582729998997603 2 87.924889136727472 2.9931871695626411 2 87.97741253406933 14.056493814922074 2 97.095376329467385 1.2799357228216868 2 4.0680870315296112 7.5123106075746966 2 11.663370015878511 7.2822432688906282 2 19.992317465195647 5.7394107191831409 2 37.069177964276982 6.5523082549339033 2 36.148656320218215 1.2799357228216868 2 46.786817947540456 3.0244015952723848 2 46.986425351076953 8.2927988158503254 2 54.907574269132503 10.052324525028677 2 58.467869782103797 7.5394671306578793 2 60.51477503193734 4.7428847132581415 2 69.210811177885603 7.7481044589141401 2 72.875293508043598 1.2799357228216868 2 76.274235637534943 3.3792827544250961 2 79.885538575300899 3.4409405142051366 2 84.879269104582818 3.620891009259009 2 91.748218561472385 4.7993172456585569 2 97.011800280168373 7.0470655055167191 2 5.8989327817481199 1.2799357228216868 2 16.73792372824029 3.3618505855365792 2 23.718811891173676 7.1691179940054894 2 32.74432567324012 3.0380361824398765 2 37.177893103517441 10.668063372272773 2 43.322734482625968 3.2635780714423448 2 44.319616771805549 13.392708017537643 2 54.200905860545561 1.2799357228216868 2 53.589220893214822 8.5349455482682881 2 62.695879993208976 9.1235573966486356 2 71.208988947934813 3.1807963575021105 2 71.961444067181347 11.417022040153583 2 76.863516375184801 6.3431496380336414 2 80.008391021081508 11.069911693225393 2 86.205598449845624 5.4566340127931925 2 91.352657561936468 11.278070773601815 2 95.134272316926001 6.8390298122049105 2 2.7951929574181329 3.1481654025984005 2 13.035833855936273 3.0948384211223607 2 23.577526055168324 1.2799357228216868 2 33.135564964040249 11.604155046245186 2 38.186123678253807 1.2799357228216868 2 42.777654495748195 9.4458508532353367 2 47.780419202819445 1.2799357228216868 2 51.59278152513459 12.616943673733731 2 60.393804432208583 8.4099792433365756 2 62.275677932402935 5.0844113407005151 2 69.216827855009925 13.73247410796861 2 73.326008560499503 6.2473850223644654 2 79.110534483955391 1.2799357228216868 2 81.994829947574004 4.5861329028377487 2 84.523741555849838 9.6369569769459158 2 91.231994010648677 1.2799357228216868 2 90.679136246249115 14.412376388101624 2 7.58144055517322 9.7885242447328746 2 18.163832402488726 7.2766924284484995 2 25.248134837233167 3.1733846978310134 2 33.339500644081767 6.2480948049080904 2 39.688863302915898 12.321417419501682 2 40.470724625730583 4.7042214888900133 2 47.999008363749283 10.479180587374273 2 52.12801029364482 5.01215490153281 2 55.727627601023492 3.0880826785596978 2 65.917782216528849 9.6765928874645812 2 65.702514654951543 5.8683931446152631 2 75.824340708359614 14.732394102445829 2 77.925631908034347 11.436511441228053 2 78.726617447321999 7.1207100930749689 2 85.28755895725557 1.2799357228216868 2 87.692815058448289 11.278206141465725 2 95.61126233863304 3.2365508510622627 2 4.7905507935483609 3.3656210055007723 2 13.30393124121696 10.669275358266232 2 21.02465215208494 3.4879489598826487 2 34.542092869612858 7.7442504902414404 2 34.78931252950796 2.8490428306471656 2 44.738037100559559 1.2799357228216868 2 45.779979513124907 6.6847552630163065 2 54.247342181891867 12.345787234056619 2 57.382582183452918 3.1065900818919774 2 61.002828442442173 1.2799357228216868 2 67.741418749550007 3.049377827062774 2 71.905874273553096 4.9500605223550815 2 76.096531572010122 1.2799357228216868 2 82.247673621089191 1.2799357228216868 2 85.121114721465929 7.6193843913389125 2 88.385599285698945 8.6594025130357934 2 94.542223684352891 8.7315748939397562 2 8.874374708959321 3.7043453713238392 2 14.433607240461061 6.3247348732927398 2 22.4157747862901 9.666379519419241 2 29.647918815146994 2.8441068137906096 2 38.255290167397781 8.2963750315630751 2 43.258635032573032 1.2799357228216868 2 41.196111929320764 14.210248026455718 2 55.849688032244572 4.9680391109334998 2 54.998765067463665 7.2679922943160999 2 64.478399835003756 10.879121229611361 2 69.478772065715916 2.9949275687409966 2 73.999423774824635 10.181585756449671 2 75.348023001290727 5.4433311492189658 2 81.463696416474633 12.783036318780949 2 90.006202445250494 5.2534524782191072 2 92.847111749592088 8.3672950992647053 2 90.111265515863764 7.5853615832478889 2 3.2883295801218448 5.3386468208182034 2 10.13605396707581 1.2799357228216868 2 21.738736811163314 1.2799357228216868 2 35.096524476816938 10.466277453357893 2 37.715956122772162 4.728016285582048 2 44.156150808469505 5.6513018055562805 2 48.979453589213939 2.9610265144093035 2 52.577357176928153 6.9455839670186768 2 56.667652534145446 11.332171029608638 2 64.163693988565186 3.4639915622730011 2 71.951537725705663 9.4707535615771157 2 70.539082645813735 6.0480305714808198 2 77.491763807777559 1.2799357228216868 2 82.62816797228362 6.2592548080961317 2 83.079347128634879 8.1396749892684745 2 94.145382087408194 3.1166156412394557 2 94.699624666395252 12.7042657241785 2 9.8431658809441007 5.9506195675929554 2 16.300268897647683 5.7708396341393495 2 26.929348935938474 1.2799357228216868 2 31.573856240945755 5.2711688327598347 2 41.085108968767663 6.466825372270808 2 42.526286204699794 5.0369069905594648 2 49.004835721960028 12.700419461215247 2 50.865220993323717 3.1246229471432212 2 57.524831551087523 1.2799357228216868 2 64.737100579793108 8.0567463467248093 2 66.325711967626432 1.2799357228216868 2 71.688609698682242 13.589395622798277 2 76.778642010768564 8.2146655914765141 2 79.797791144872903 8.8039867401534888 2 88.32225393469696 1.2799357228216868 2 89.570870041962905 12.372833129796032 2 95.703989498014806 1.2799357228216868 2 2.9345163175343107 9.5983992045672704 2 12.653806256791981 5.2568302178897097 2 19.147174972751397 3.3682329828516373 2 39.086305272073282 6.2266153327346343 2 34.284049966010343 1.2799357228216868 2 48.188367785030877 4.4778607834758377 2 45.894332531639748 9.947764380882381 2 56.589865435601332 8.87032703280852 2 59.624532125678108 6.1023040627554916 2 58.959129093744615 3.4778971027026624 2 68.352959020316817 6.0578756375888236 2 74.48113493596972 1.2799357228216868 2 77.442331842682208 4.637383539044337 2 80.525193902285494 5.4753918725269912 2 86.259727297120222 3.2665340131627887 2 92.572009272277654 3.089686560034079 2 96.463239111439677 8.5803067068559677 2 </DataArray>