<?xml version="1.0" ?>
<VTKFile byte_order="LittleEndian" type="UnstructuredGrid" version="0.1">
<UnstructuredGrid>
<Piece NumberOfCells="0" NumberOfPoints="256">
<Points>
<DataArray NumberOfComponents="3" format="ascii" type="Float32">1 6.1838026148385774 2 9.867161294386225 8.2635674017179106 2 17.803156636039184 5.952597181654415 2 27.70672874444239 13.705444238772373 2 8.6052530614233014 5.9622435132078282 2 13.223909126898668 12.291387255822738 2 15.628441432973363 13.945124728730436 2 23.718272860713917 7.7185797837396848 2 1.0417632638142877 13.447600469112356 2 13.925347685079563 17.107908716076437 2 22.796813395056496 13.94755637069926 2 23.980557453552212 3.0629110677494453 2 4.3339932651634498 5.0749856135297922 2 10.826923521526629 11.329539704657369 2 17.900441234439711 9.0530284126268334 2 26.0770890162289 13.394846047784158 2 3.8596766128518802 1 2 13.146740406329101 1 2 20.6056756418117 3.1799735558933713 2 27.599141702806769 9.3667694797272283 2 8.7432789883690134 12.60527279158088 2 11.238908902665386 15.65263628633584 2 19.125713080806221 9.6280086937630713 2 22.954367730674132 1 2 4.4430371945067746 14.499658003342443 2 15.023716070744738 6.5857978488858695 2 20.221078074803035 16.026524571311686 2 27.936088772141918 4.6581740976992405 2 6.6210108080710874 2.1218780178223988 2 11.507250086658651 1 2 18.399953862510248 1 2 23.225399910925482 18.101372439415645 2 1 9.7592525699266641 2 9.2645824010280577 3.5382190472981434 2 19.670358167211894 2.393033898332817 2 29.838987398168218 19.288401339250989 2 5.6003076371245539 8.5661723031822632 2 13.987028106910421 8.228545111175567 2 18.605279148816582 11.39876620671771 2 23.951072183346671 9.2159957246710871 2 3.9228749928901161 13.03808163074344 2 15.497786024255378 17.830161970242038 2 21.618751709761963 11.620899648731084 2 25.210938134334235 3.6245005292169923 2 4.5467223143928015 7.0616754559504145 2 8.4709801209000997 8.7039462796140832 2 16.224593073473859 7.030482826351224 2 25.281652306840478 10.907784526996988 2 2.249602770503444 3.5537041086473069 2 11.482412183228313 5.5153776875997105 2 20.996547339822918 7.7014627406478944 2 26.750818065391243 7.6198110265677732 2 4.2798832224895245 17.939667761623713 2 7.700921801952938 19.152145610775239 2 18.915241126660398 14.751735957739413 2 22.670080098912305 5.2738218410305926 2 2.6873449404403558 14.491915949794869 2 14.933597341056071 9.6143168002776314 2 21.405831997830916 19.147616378870673 2 26.511871090496829 1 2 6.3451803156412856 3.2627847553209826 2 7.7395246414518226 3.5387080284647303 2 14.336722701311574 1 2 26.309993641794062 18.555131737609567 2 2.439728172648941 5.1608514525091307 2 8.8744337025752671 9.9145132167882455 2 17.822620681561922 3.4411902054166212 2 30.214427412039964 14.75856559475104 2 6.0459201964803668 4.536087631363336 2 11.589564673106707 9.9746388648857014 2 15.711569492233096 11.219540259708126 2 25.962857095846353 6.1270185387976071 2 1 11.599266497230769 2 13.93305658997485 13.616811209032585 2 24.427808664854648 13.522572605818688 2 25.155099378963225 1 2 3.3861568494897205 4.0087183722498896 2 10.385172862531761 13.096104006488885 2 19.236294116071029 6.5941936943580846 2 26.615165370457859 14.982380709715313 2 2.4802673084442861 1 2 13.162915764883298 2.7360244575612147 2 19.184473834789394 3.7842063677196864 2 28.46440122449798 10.920207323158351 2 7.2518098486646103 13.824638871470054 2 11.66119912034708 18.035724642926525 2 18.45142435010958 12.991603773612509 2 22.01494023337769 3.9186077985403167 2 5.3113701341229662 11.969225510124719 2 15.948412923536882 3.502651026298337 2 20.691245029676644 14.420443794645838 2 28.127110283847177 3.4183200231970727 2 8.0368603234912666 1 2 10.497229924542825 3.8911690186745593 2 17.028970434949322 1 2 21.436832875606424 17.298540379790456 2 1.9653087272768235 6.6263612406062968 2 9.995688243738865 6.3731929915387679 2 20.878458000989031 1.3262787602527459 2 27.936438846622984 19.546639225776374 2 7.0450228448435857 8.3992015492797734 2 12.585112044921477 7.6981252904622055 2 16.378104130100276 10.071057575832718 2 22.295897369982761 7.9558113741920877 2 3.9803386678066346 11.323093446064023 2 14.964078021093178 19.693206138860415 2 23.189709664309781 12.222466726401359 2 24.404743950135369 5.0130457072136725 2 2.2608490381655346 8.3866760514036827 2 7.9482682037339911 10.986869595876177 2 16.347626480965189 5.4583626851566889 2 25.140269983562213 8.0513780933978847 2 1 1 2 13.159501403453023 5.8992643520294008 2 21.970893588380818 10.385492075913563 2 28.788765949011601 7.0035912461572742 2 6.0403927289155179 17.062866861762309 2 9.1184315840303771 15.890278976118825 2 16.858008823548584 12.298018656823512 2 21.401767922951571 5.5420553236229386 2 1 17.507135739269739 2 14.057280347548696 10.770762762586122 2 18.702646349068416 18.736800490445894 2 27.884819513556096 1 2 5.5150360104223095 5.7168101991957085 2 9.3019866819356825 1 2 15.040453436972429 4.1004084065615274 2 26.569839622052328 16.706879399030488 2 1 4.7879559017924187 2 10.770564931499134 7.4032237260878455 2 17.372718221887414 7.1044252710186155 2 27.999288198237153 15.412321960971093 2 7.1542565182540798 6.035110222953799 2 11.77262254536765 12.517222555315529 2 15.672367913972405 15.89135991418318 2 23.969325807544287 6.1874536621825253 2 1 15.282581313744956 2 12.672504897203023 16.026143465252638 2 23.813053020777705 15.144735624624875 2 23.980917386139641 1.0920134337850971 2 4.8613677907933086 3.7652872822739698 2 9.5292724691442015 11.3870591783782 2 18.321422642463688 7.8071479619831052 2 26.652139336755063 12.035915675131676 2 5.1969623090160351 1 2 12.251606411285218 1.8144551557369111 2 20.619963899880943 4.556905780192122 2 26.87626928629226 10.604023770623847 2 7.1222442416796907 12.271142186577389 2 12.283498246594045 14.127110588266888 2 20.886663968930122 9.1472871990761817 2 22.997911033666689 2.5007791748722799 2 5.7305532258083876 13.420196548932564 2 14.854699622328173 5.3330390770763287 2 18.891353017173891 16.89345655726223 2 27.145914036245738 6.335883046328493 2 6.6004841641582281 1 2 10.909071914593463 2.5916540001081576 2 16.987931940032922 2.3491534819114834 2 24.791000389862283 16.882194369704628 2 2.548405605940204 9.5087342131902979 2 8.7116016517334476 4.7154843472147254 2 19.808954416579745 1 2 29.801359772008265 17.553569643098179 2 5.2967370665719997 9.9958489127695174 2 13.813406931089512 6.8521892439757917 2 20.236130053438682 10.456591379116491 2 23.570907234551068 10.740546154831023 2 2.5057737658571471 12.513116568028744 2 17.214264312437592 17.4475439855748 2 20.037892332321 11.843062641792056 2 26.800794417519818 4.6960010287663367 2 3.0393796690085608 7.3383451282771777 2 8.7186436634377191 7.2850963856226727 2 16.601273504733616 8.6618665082127837 2 25.211510014873323 9.7287134350979425 2 1 3.4390801567467837 2 11.839571851855862 6.6151595355436825 2 19.630734320243139 8.1349567603729831 2 27.94687141312021 8.0437420030340743 2 4.4691295300884537 19.825316978862681 2 7.9551906528154541 17.322518398681918 2 17.431885710356369 15.700621049130254 2 23.424180742202154 4.2275752982535382 2 4.3066942500327396 16.14721739657918 2 15.281218266919998 8.1831644655759028 2 19.82270673296313 20.293710220834718 2 26.534423092416095 2.2502942697670383 2 5.1214823319405003 2.302416602175053 2 9.4135603516820545 2.3617436470397819 2 14.373625814108737 2.3700534486627935 2 24.580356643967594 19.332090284524064 2 3.5936363637235091 5.9849284532584583 2 10.202844332119344 9.6667078017952726 2 18.417119422542431 2.2182881832476622 2 29.214735421872479 16.024583434948184 2 7.2435888368561878 4.8395996035570459 2 11.601738696759895 8.6173969375213311 2 14.932856452478225 12.341327372693696 2 25.147340877742241 6.8166193292831654 2 2.3956544829011812 10.897275268384529 2 14.119024959279463 15.161351932130462 2 24.849266520333668 12.104494873069386 2 25.116388146397515 2.2605660420910314 2 3.8126408295135565 2.5168231374222474 2 10.280559493060572 14.601641309336722 2 19.579093677313718 5.3097074577212577 2 25.272343897607392 15.090691880953447 2 2.5020528854035993 2.2478856020204661 2 12.123993385033012 3.3909137391717614 2 18.245127353968737 4.9048016917655026 2 28.163809173140326 12.188046320619456 2 8.7687978362340893 14.146004945323783 2 10.172748220463214 17.144990606367369 2 19.975676667721434 13.191503410466138 2 21.778231500026088 2.5502241756547059 2 6.2712701226998941 10.948241428079083 2 15.597496423851169 2.2809884862004792 2 21.887684669670964 15.391275022857137 2 26.547725017570663 3.4368692542528483 2 8.0059341875335779 2.2919191890831776 2 11.898881882298751 4.4550688053776346 2 15.695589783594837 1 2 23.046782132284807 16.448845436867597 2 1 7.9655078040140044 2 10.1312995364732 5.1132945972811701 2 21.843637754073832 1 2 28.310972341433583 21.434693078194812 2 7.296850621884384 7.2447044665500728 2 13.159233610831659 9.3435973177753002 2 17.580167090121936 10.628904373646884 2 22.494270765701994 6.6474096207931863 2 3.9160127736908339 9.8380187409321209 2 13.245265301097186 18.926855916866757 2 21.644832496209265 13.044940479013775 2 25.551736715705403 4.9713747286710577 2 4.0902996171187995 8.4727259671033792 2 7.0613092314824799 9.7005854568663654 2 16.853768660164626 4.3316102502154719 2 26.276225722822296 8.9521940942411593 2 1 2.1704782027148775 2 13.89011371913352 3.802136285239563 2 22.570860116812327 9.1988736087994631 2 28.301189401494899 5.9172004957700199 2 5.9507044960271127 15.21532400628497 2 7.5070325639909594 15.548749325942508 2 17.202911793811317 14.030827247187215 2 20.706233080909136 6.5397285968418677 2 2.5041844609896349 16.423096866112488 2 12.535790800127971 10.912059814246186 2 16.836196362199782 19.284307212014102 2 27.899666370034108 2.2734387369480276 2 5.8412888563983127 7.0708283989922318 2 10.435752746584239 1 2 13.276721413607442 4.7924092896473356 2 28.06125651902892 17.632660562133356 2 </DataArray>
</Points>
<Cells>
<DataArray Name="connectivity" format="ascii" type="Int32">0</DataArray>
<DataArray Name="offsets" format="ascii" type="Int32">0</DataArray>
<DataArray Name="types" format="ascii" type="UInt8">1</DataArray>
</Cells>
<PointData>
<DataArray Name="Points" NumberOfComponents="3" format="ascii" type="Float32">1 6.1838026148385774 2 9.867161294386225 8.2635674017179106 2 17.803156636039184 5.952597181654415 2 27.70672874444239 13.705444238772373 2 8.6052530614233014 5.9622435132078282 2 13.223909126898668 12.291387255822738 2 15.628441432973363 13.945124728730436 2 23.718272860713917 7.7185797837396848 2 1.0417632638142877 13.447600469112356 2 13.925347685079563 17.107908716076437 2 22.796813395056496 13.94755637069926 2 23.980557453552212 3.0629110677494453 2 4.3339932651634498 5.0749856135297922 2 10.826923521526629 11.329539704657369 2 17.900441234439711 9.0530284126268334 2 26.0770890162289 13.394846047784158 2 3.8596766128518802 1 2 13.146740406329101 1 2 20.6056756418117 3.1799735558933713 2 27.599141702806769 9.3667694797272283 2 8.7432789883690134 12.60527279158088 2 11.238908902665386 15.65263628633584 2 19.125713080806221 9.6280086937630713 2 22.954367730674132 1 2 4.4430371945067746 14.499658003342443 2 15.023716070744738 6.5857978488858695 2 20.221078074803035 16.026524571311686 2 27.936088772141918 4.6581740976992405 2 6.6210108080710874 2.1218780178223988 2 11.507250086658651 1 2 18.399953862510248 1 2 23.225399910925482 18.101372439415645 2 1 9.7592525699266641 2 9.2645824010280577 3.5382190472981434 2 19.670358167211894 2.393033898332817 2 29.838987398168218 19.288401339250989 2 5.6003076371245539 8.5661723031822632 2 13.987028106910421 8.228545111175567 2 18.605279148816582 11.39876620671771 2 23.951072183346671 9.2159957246710871 2 3.9228749928901161 13.03808163074344 2 15.497786024255378 17.830161970242038 2 21.618751709761963 11.620899648731084 2 25.210938134334235 3.6245005292169923 2 4.5467223143928015 7.0616754559504145 2 8.4709801209000997 8.7039462796140832 2 16.224593073473859 7.030482826351224 2 25.281652306840478 10.907784526996988 2 2.249602770503444 3.5537041086473069 2 11.482412183228313 5.5153776875997105 2 20.996547339822918 7.7014627406478944 2 26.750818065391243 7.6198110265677732 2 4.2798832224895245 17.939667761623713 2 7.700921801952938 19.152145610775239 2 18.915241126660398 14.751735957739413 2 22.670080098912305 5.2738218410305926 2 2.6873449404403558 14.491915949794869 2 14.933597341056071 9.6143168002776314 2 21.405831997830916 19.147616378870673 2 26.511871090496829 1 2 6.3451803156412856 3.2627847553209826 2 7.7395246414518226 3.5387080284647303 2 14.336722701311574 1 2 26.309993641794062 18.555131737609567 2 2.439728172648941 5.1608514525091307 2 8.8744337025752671 9.9145132167882455 2 17.822620681561922 3.4411902054166212 2 30.214427412039964 14.75856559475104 2 6.0459201964803668 4.536087631363336 2 11.589564673106707 9.9746388648857014 2 15.711569492233096 11.219540259708126 2 25.962857095846353 6.1270185387976071 2 1 11.599266497230769 2 13.93305658997485 13.616811209032585 2 24.427808664854648 13.522572605818688 2 25.155099378963225 1 2 3.3861568494897205 4.0087183722498896 2 10.385172862531761 13.096104006488885 2 19.236294116071029 6.5941936943580846 2 26.615165370457859 14.982380709715313 2 2.4802673084442861 1 2 13.162915764883298 2.7360244575612147 2 19.184473834789394 3.7842063677196864 2 28.46440122449798 10.920207323158351 2 7.2518098486646103 13.824638871470054 2 11.66119912034708 18.035724642926525 2 18.45142435010958 12.991603773612509 2 22.01494023337769 3.9186077985403167 2 5.3113701341229662 11.969225510124719 2 15.948412923536882 3.502651026298337 2 20.691245029676644 14.420443794645838 2 28.127110283847177 3.4183200231970727 2 8.0368603234912666 1 2 10.497229924542825 3.8911690186745593 2 17.028970434949322 1 2 21.436832875606424 17.298540379790456 2 1.9653087272768235 6.6263612406062968 2 9.995688243738865 6.3731929915387679 2 20.878458000989031 1.3262787602527459 2 27.936438846622984 19.546639225776374 2 7.0450228448435857 8.3992015492797734 2 12.585112044921477 7.6981252904622055 2 16.378104130100276 10.071057575832718 2 22.295897369982761 7.9558113741920877 2 3.9803386678066346 11.323093446064023 2 14.964078021093178 19.693206138860415 2 23.189709664309781 12.222466726401359 2 24.404743950135369 5.0130457072136725 2 2.2608490381655346 8.3866760514036827 2 7.9482682037339911 10.986869595876177 2 16.347626480965189 5.4583626851566889 2 25.140269983562213 8.0513780933978847 2 1 1 2 13.159501403453023 5.8992643520294008 2 21.970893588380818 10.385492075913563 2 28.788765949011601 7.0035912461572742 2 6.0403927289155179 17.062866861762309 2 9.1184315840303771 15.890278976118825 2 16.858008823548584 12.298018656823512 2 21.401767922951571 5.5420553236229386 2 1 17.507135739269739 2 14.057280347548696 10.770762762586122 2 18.702646349068416 18.736800490445894 2 27.884819513556096 1 2 5.5150360104223095 5.7168101991957085 2 9.3019866819356825 1 2 15.040453436972429 4.1004084065615274 2 26.569839622052328 16.706879399030488 2 1 4.7879559017924187 2 10.770564931499134 7.4032237260878455 2 17.372718221887414 7.1044252710186155 2 27.999288198237153 15.412321960971093 2 7.1542565182540798 6.035110222953799 2 11.77262254536765 12.517222555315529 2 15.672367913972405 15.89135991418318 2 23.969325807544287 6.1874536621825253 2 1 15.282581313744956 2 12.672504897203023 16.026143465252638 2 23.813053020777705 15.144735624624875 2 23.980917386139641 1.0920134337850971 2 4.8613677907933086 3.7652872822739698 2 9.5292724691442015 11.3870591783782 2 18.321422642463688 7.8071479619831052 2 26.652139336755063 12.035915675131676 2 5.1969623090160351 1 2 12.251606411285218 1.8144551557369111 2 20.619963899880943 4.556905780192122 2 26.87626928629226 10.604023770623847 2 7.1222442416796907 12.271142186577389 2 12.283498246594045 14.127110588266888 2 20.886663968930122 9.1472871990761817 2 22.997911033666689 2.5007791748722799 2 5.7305532258083876 13.420196548932564 2 14.854699622328173 5.3330390770763287 2 18.891353017173891 16.89345655726223 2 27.145914036245738 6.335883046328493 2 6.6004841641582281 1 2 10.909071914593463 2.5916540001081576 2 16.987931940032922 2.3491534819114834 2 24.791000389862283 16.882194369704628 2 2.548405605940204 9.5087342131902979 2 8.7116016517334476 4.7154843472147254 2 19.808954416579745 1 2 29.801359772008265 17.553569643098179 2 5.2967370665719997 9.9958489127695174 2 13.813406931089512 6.8521892439757917 2 20.236130053438682 10.456591379116491 2 23.570907234551068 10.740546154831023 2 2.5057737658571471 12.513116568028744 2 17.214264312437592 17.4475439855748 2 20.037892332321 11.843062641792056 2 26.800794417519818 4.6960010287663367 2 3.0393796690085608 7.3383451282771777 2 8.7186436634377191 7.2850963856226727 2 16.601273504733616 8.6618665082127837 2 25.211510014873323 9.7287134350979425 2 1 3.4390801567467837 2 11.839571851855862 6.6151595355436825 2 19.630734320243139 8.1349567603729831 2 27.94687141312021 8.0437420030340743 2 4.4691295300884537 19.825316978862681 2 7.9551906528154541 17.322518398681918 2 17.431885710356369 15.700621049130254 2 23.424180742202154 4.2275752982535382 2 4.3066942500327396 16.14721739657918 2 15.281218266919998 8.1831644655759028 2 19.82270673296313 20.293710220834718 2 26.534423092416095 2.2502942697670383 2 5.1214823319405003 2.302416602175053 2 9.4135603516820545 2.3617436470397819 2 14.373625814108737 2.3700534486627935 2 24.580356643967594 19.332090284524064 2 3.5936363637235091 5.9849284532584583 2 10.202844332119344 9.6667078017952726 2 18.417119422542431 2.2182881832476622 2 29.214735421872479 16.024583434948184 2 7.2435888368561878 4.8395996035570459 2 11.601738696759895 8.6173969375213311 2 14.932856452478225 12.341327372693696 2 25.147340877742241 6.8166193292831654 2 2.3956544829011812 10.897275268384529 2 14.119024959279463 15.161351932130462 2 24.849266520333668 12.104494873069386 2 25.116388146397515 2.2605660420910314 2 3.8126408295135565 2.5168231374222474 2 10.280559493060572 14.601641309336722 2 19.579093677313718 5.3097074577212577 2 25.272343897607392 15.090691880953447 2 2.5020528854035993 2.2478856020204661 2 12.123993385033012 3.3909137391717614 2 18.245127353968737 4.9048016917655026 2 28.163809173140326 12.188046320619456 2 8.7687978362340893 14.146004945323783 2 10.172748220463214 17.144990606367369 2 19.975676667721434 13.191503410466138 2 21.778231500026088 2.5502241756547059 2 6.2712701226998941 10.948241428079083 2 15.597496423851169 2.2809884862004792 2 21.887684669670964 15.391275022857137 2 26.547725017570663 3.4368692542528483 2 8.0059341875335779 2.2919191890831776 2 11.898881882298751 4.4550688053776346 2 15.695589783594837 1 2 23.046782132284807 16.448845436867597 2 1 7.9655078040140044 2 10.1312995364732 5.1132945972811701 2 21.843637754073832 1 2 28.310972341433583 21.434693078194812 2 7.296850621884384 7.2447044665500728 2 13.159233610831659 9.3435973177753002 2 17.580167090121936 10.628904373646884 2 22.494270765701994 6.6474096207931863 2 3.9160127736908339 9.8380187409321209 2 13.245265301097186 18.926855916866757 2 21.644832496209265 13.044940479013775 2 25.551736715705403 4.9713747286710577 2 4.0902996171187995 8.4727259671033792 2 7.0613092314824799 9.7005854568663654 2 16.853768660164626 4.3316102502154719 2 26.276225722822296 8.9521940942411593 2 1 2.1704782027148775 2 13.89011371913352 3.802136285239563 2 22.570860116812327 9.1988736087994631 2 28.301189401494899 5.9172004957700199 2 5.9507044960271127 15.21532400628497 2 7.5070325639909594 15.548749325942508 2 17.202911793811317 14.030827247187215 2 20.706233080909136 6.5397285968418677 2 2.5041844609896349 16.423096866112488 2 12.535790800127971 10.912059814246186 2 16.836196362199782 19.284307212014102 2 27.899666370034108 2.2734387369480276 2 5.8412888563983127 7.0708283989922318 2 10.435752746584239 1 2 13.276721413607442 4.7924092896473356 2 28.06125651902892 17.632660562133356 2 </DataArray>