<?xml version="1.0" ?>
<VTKFile byte_order="LittleEndian" type="UnstructuredGrid" version="0.1">
<UnstructuredGrid>
<Piece NumberOfCells="0" NumberOfPoints="8">
<Points>
<DataArray NumberOfComponents="3" format="ascii" type="Float32">1.9300000000000002 1.05 2 9.9299999999999997 1.05 2 18.055311069603583 1.05 2 39.858692359759779 1.05 2 51.557945215318767 1.05 2 65.930000000000007 1.05 2 69.643730629503395 1.05 2 82.05531106960359 1.05 2 </DataArray>
</Points>
<Cells>
<DataArray Name="connectivity" format="ascii" type="Int32">0</DataArray>
<DataArray Name="offsets" format="ascii" type="Int32">0</DataArray>
<DataArray Name="types" format="ascii" type="UInt8">1</DataArray>
</Cells>
<PointData>
<DataArray Name="Points" NumberOfComponents="3" format="ascii" type="Float32">1.9300000000000002 1.05 2 9.9299999999999997 1.05 2 18.055311069603583 1.05 2 39.858692359759779 1.05 2 51.557945215318767 1.05 2 65.930000000000007 1.05 2 69.643730629503395 1.05 2 82.05531106960359 1.05 2 </DataArray>
<DataArray Name="forces" NumberOfComponents="3" format="ascii" type="Float32">0.0 0.0 0.0 0.0 0.0 0.0 0.0 0.0 0.0 0.0 0.0 0.0 -0.00017648313734865273 -6.089741758992651e-06 0.0 0.0 0.0 0.0 0.0 0.0 0.0 0.0 0.0 0.0 </DataArray>
<DataArray Name="radii" format="ascii" type="Float32">1.05 1.05 1.05 1.05 1.05 1.05 1.05 1.05 </DataArray>
</PointData>
<CellData/>
</Piece>
</UnstructuredGrid>
</VTKFile>
