<?xml version="1.0" ?>
<VTKFile byte_order="LittleEndian" type="UnstructuredGrid" version="0.1">
<UnstructuredGrid>
<Piece NumberOfCells="0" NumberOfPoints="12">
<Points>
<DataArray NumberOfComponents="3" format="ascii" type="Float32">0 0 0 32.916711979802109 5.9836209547168666 2 43.338634735521588 4.8723878413985853 2 82.350785608310517 1 2 30.696118187075594 6.9599582887875142 2 40.557258207558156 4.1375050626394518 2 81.156468315225254 6.816391419313125 2 33.009112269008355 3.2795442195972631 2 39.625487870400733 8.4532847769502055 2 41.914009994259125 1.5392903074899946 2 32.336656160029428 1.2 2 82.311758086383179 4.718007367593728 2 </DataArray>
</Points>
<Cells>
<DataArray Name="connectivity" format="ascii" type="Int32">0</DataArray>
<DataArray Name="offsets" format="ascii" type="Int32">0</DataArray>
<DataArray Name="types" format="ascii" type="UInt8">1</DataArray>
</Cells>
<PointData>
<DataArray Name="Points" NumberOfComponents="3" format="ascii" type="Float32">0 0 0 32.916711979802109 5.9836209547168666 2 43.338634735521588 4.8723878413985853 2 82.350785608310517 1 2 30.696118187075594 6.9599582887875142 2 40.557258207558156 4.1375050626394518 2 81.156468315225254 6.816391419313125 2 33.009112269008355 3.2795442195972631 2 39.625487870400733 8.4532847769502055 2 41.914009994259125 1.5392903074899946 2 32.336656160029428 1.2 2 82.311758086383179 4.718007367593728 2 </DataArray>
<DataArray Name="forces" NumberOfComponents="3" format="ascii" type="Float32">0 0 0 0.00070410735220805746 0.00071343909150909323 0.0 -0.012998796992785144 0.008106977917379932 0.0 0.010105892282759314 -0.013772389338926492 0.0 0.0 0.0 0.0 0.0 0.0 0.0 -0.0011424299155467922 -0.0016175643838236724 0.0 -0.01293823975343875 -0.011322568453646669 0.0 0.00051225134479742805 0.0010346118389409158 0.0 0.0 0.0 0.0 0.0067332093800640831 -0.0037940881147416547 0.0 -0.012747735140995741 0.00088732509066434973 0.0 </DataArray>
<DataArray Name="radii" format="ascii" type="Float32">0 1.2 1.4 1 1.2 1 1 1 1.4 1 1.2 1.4 </DataArray>
</PointData>
<CellData/>
</Piece>
</UnstructuredGrid>
</VTKFile>
