<?xml version="1.0" ?>
<VTKFile byte_order="LittleEndian" type="UnstructuredGrid" version="0.1">
<UnstructuredGrid>
<Piece NumberOfCells="0" NumberOfPoints="36">
<Points>
<DataArray NumberOfComponents="3" format="ascii" type="Float32">28.786740900134454 11.998493364992997 2 98.47006427717831 7.9154796952690099 2 27.129158090165191 3.3414962309560914 2 60.948759994198006 12.230210539575545 2 95.991271689324023 16.665892660785641 2 26.213648039851201 11.900286769331911 2 98.47006427717831 4.534424730251291 2 29.797161633609313 9.4637895724112706 2 96.799495812874312 11.433441293687821 2 31.209754901141626 11.489439952356001 2 94.926983875899069 5.8077163068728517 2 25.107292680682502 6.8635138916563863 2 58.89090614678851 16.566109830398435 2 96.454755154211057 13.948172880868253 2 27.689762243641308 9.5735627146814188 2 98.47006427717831 1.5299357228216868 2 28.691149784870511 5.3966564959455461 2 98.47006427717831 15.074809896696857 2 27.38888494928953 14.45447028754192 2 98.47006427717831 6.1000021474739663 2 28.996800903052879 1.5299357228216868 2 61.269207837470255 15.165958244466967 2 90.448833733209725 3.2314020838275077 2 98.47006427717831 17.832246868657037 2 96.69909153835718 3.8193262409067414 2 29.726467376460388 7.2916525822550522 2 98.47006427717831 9.9148813130766236 2 30.388821561912096 14.315821872818248 2 96.542148543997385 5.9075466117532516 2 26.488320003259062 5.1473595211181982 2 58.833609625109418 13.77040425975115 2 94.851077671958805 12.029027784500899 2 25.451779762458962 9.2097002149994491 2 98.47006427717831 3.0281564222860911 2 27.438062775431295 7.3513083022593113 2 98.47006427717831 12.43361831823154 2 </DataArray>
</Points>
<Cells>
<DataArray Name="connectivity" format="ascii" type="Int32">0</DataArray>
<DataArray Name="offsets" format="ascii" type="Int32">0</DataArray>
<DataArray Name="types" format="ascii" type="UInt8">1</DataArray>
</Cells>
<PointData>
<DataArray Name="Points" NumberOfComponents="3" format="ascii" type="Float32">28.786740900134454 11.998493364992997 2 98.47006427717831 7.9154796952690099 2 27.129158090165191 3.3414962309560914 2 60.948759994198006 12.230210539575545 2 95.991271689324023 16.665892660785641 2 26.213648039851201 11.900286769331911 2 98.47006427717831 4.534424730251291 2 29.797161633609313 9.4637895724112706 2 96.799495812874312 11.433441293687821 2 31.209754901141626 11.489439952356001 2 94.926983875899069 5.8077163068728517 2 25.107292680682502 6.8635138916563863 2 58.89090614678851 16.566109830398435 2 96.454755154211057 13.948172880868253 2 27.689762243641308 9.5735627146814188 2 98.47006427717831 1.5299357228216868 2 28.691149784870511 5.3966564959455461 2 98.47006427717831 15.074809896696857 2 27.38888494928953 14.45447028754192 2 98.47006427717831 6.1000021474739663 2 28.996800903052879 1.5299357228216868 2 61.269207837470255 15.165958244466967 2 90.448833733209725 3.2314020838275077 2 98.47006427717831 17.832246868657037 2 96.69909153835718 3.8193262409067414 2 29.726467376460388 7.2916525822550522 2 98.47006427717831 9.9148813130766236 2 30.388821561912096 14.315821872818248 2 96.542148543997385 5.9075466117532516 2 26.488320003259062 5.1473595211181982 2 58.833609625109418 13.77040425975115 2 94.851077671958805 12.029027784500899 2 25.451779762458962 9.2097002149994491 2 98.47006427717831 3.0281564222860911 2 27.438062775431295 7.3513083022593113 2 98.47006427717831 12.43361831823154 2 </DataArray>
<DataArray Name="forces" NumberOfComponents="3" format="ascii" type="Float32">-0.067618686308248341 0.4085513215590787 0.0 1.6077731570493299 0.2236854854869654 0.0 -0.091716084791729352 0.14317035303190173 0.0 0.05681283264395981 0.45521837739736903 0.0 -0.047810646642516386 0.44652852212806327 0.0 -0.097497359373202197 0.41002405601631198 0.0 1.6363622807714742 0.14499200959846714 0.0 -0.082436973447753928 0.36307715321024747 0.0 -0.031587360691426869 0.36830837576320707 0.0 -0.040302770123237457 0.35662728108052943 0.0 -0.085096393762682465 0.2021785311910439 0.0 -0.091804699013804281 0.31763239891822415 0.0 0.041588600890175853 0.53009172580260266 0.0 -0.049568495090975606 0.40210995464871691 0.0 -0.075919099726397377 0.37738996975589822 0.0 1.5327074035609003 -1.7589344226179831 0.0 -0.070686359389022735 0.2598696458832046 0.0 0.75725617478808049 0.42290463923540822 0.0 -0.069621514327302764 0.43462965776184531 0.0 1.57921296310946 0.18015681457342259 0.0 0.0037594134554819192 -1.3566154708387008 0.0 0.032857578339711507 0.45211403368818315 0.0 -0.083912557533647236 0.16685461652625516 0.0 0.292065879523556 0.4411676628580628 0.0 -0.028048572975421848 0.15095583054133527 0.0 -0.042758019870400177 0.32280541654228195 0.0 1.6208258694398443 0.291350376132821 0.0 -0.054097539893938867 0.40080193835379874 0.0 -0.058310593863995994 0.21244703929792463 0.0 -0.075888371957230361 0.25513966804050292 0.0 -0.0080062998330934221 0.48450683450538867 0.0 -0.056928338482116259 0.35169969800213885 0.0 -0.099113645419368568 0.39427078601545562 0.0 1.6493871985669388 0.12474775193377957 0.0 -0.088627558507143767 0.33894124175976947 0.0 1.3895674523873254 0.37113852449557477 0.0 </DataArray>
<DataArray Name="radii" format="ascii" type="Float32">1.5299357228216868 1.5299357228216868 1.5299357228216868 1.5299357228216868 1.5299357228216868 1.5299357228216868 1.5299357228216868 1.5299357228216868 1.5299357228216868 1.5299357228216868 1.5299357228216868 1.5299357228216868 1.5299357228216868 1.5299357228216868 1.5299357228216868 1.5299357228216868 1.5299357228216868 1.5299357228216868 1.5299357228216868 1.5299357228216868 1.5299357228216868 1.5299357228216868 1.5299357228216868 1.5299357228216868 1.5299357228216868 1.5299357228216868 1.5299357228216868 1.5299357228216868 1.5299357228216868 1.5299357228216868 1.5299357228216868 1.5299357228216868 1.5299357228216868 1.5299357228216868 1.5299357228216868 1.5299357228216868 </DataArray>
</PointData>
<CellData/>
</Piece>
</UnstructuredGrid>
</VTKFile>
