<?xml version="1.0" ?>
<VTKFile byte_order="LittleEndian" type="UnstructuredGrid" version="0.1">
<UnstructuredGrid>
<Piece NumberOfCells="0" NumberOfPoints="35">
<Points>
<DataArray NumberOfComponents="3" format="ascii" type="Float32">0 0 0 6.6117803865979257 1.3152003100980765 2 16.218397474138822 1.7636653621214593 2 27.740789311650328 2.1958964654562649 2 32.710332089103723 1.19055078897 2 37.160240513750701 2.3416953004807723 2 41.74049072123605 1.19055078897 2 46.166606901112239 2.7594890622581767 2 52.702606487959208 1.19055078897 2 56.333497515025535 1.19055078897 2 63.263990985240532 1.7418078531584489 2 70.623790659149122 1.19055078897 2 74.455123712208504 3.7168960692397133 2 76.100572034877771 1.9967730346975265 2 79.60989922399331 3.2161932271383975 2 87.922242946227954 1.19055078897 2 91.803146875253617 3.076252076527302 2 95.618480321017515 1.19055078897 2 4.2635791420569182 1.7092944326252144 2 13.907679419664516 1.19055078897 2 25.583182688666614 1.19055078897 2 33.920925662715412 3.2635765658885325 2 35.087418126664659 1.19055078897 2 43.905800244540359 2.1135235264778709 2 47.912624313509106 1.19055078897 2 54.49739231316503 2.6869044520877097 2 56.555414346250188 3.8381891307157456 2 61.097662771649247 1.19055078897 2 72.217286464584546 2.919779854071515 2 73.860555457627655 1.19055078897 2 78.338863193556662 1.19055078897 2 80.842369569866875 1.19055078897 2 85.736317590364166 1.3886615678335421 2 93.241563709554612 1.19055078897 2 96.533450279468184 3.363030595806344 2 </DataArray>
</Points>
<Cells>
<DataArray Name="connectivity" format="ascii" type="Int32">0</DataArray>
<DataArray Name="offsets" format="ascii" type="Int32">0</DataArray>
<DataArray Name="types" format="ascii" type="UInt8">1</DataArray>
</Cells>
<PointData>
<DataArray Name="Points" NumberOfComponents="3" format="ascii" type="Float32">0 0 0 6.6117803865979257 1.3152003100980765 2 16.218397474138822 1.7636653621214593 2 27.740789311650328 2.1958964654562649 2 32.710332089103723 1.19055078897 2 37.160240513750701 2.3416953004807723 2 41.74049072123605 1.19055078897 2 46.166606901112239 2.7594890622581767 2 52.702606487959208 1.19055078897 2 56.333497515025535 1.19055078897 2 63.263990985240532 1.7418078531584489 2 70.623790659149122 1.19055078897 2 74.455123712208504 3.7168960692397133 2 76.100572034877771 1.9967730346975265 2 79.60989922399331 3.2161932271383975 2 87.922242946227954 1.19055078897 2 91.803146875253617 3.076252076527302 2 95.618480321017515 1.19055078897 2 4.2635791420569182 1.7092944326252144 2 13.907679419664516 1.19055078897 2 25.583182688666614 1.19055078897 2 33.920925662715412 3.2635765658885325 2 35.087418126664659 1.19055078897 2 43.905800244540359 2.1135235264778709 2 47.912624313509106 1.19055078897 2 54.49739231316503 2.6869044520877097 2 56.555414346250188 3.8381891307157456 2 61.097662771649247 1.19055078897 2 72.217286464584546 2.919779854071515 2 73.860555457627655 1.19055078897 2 78.338863193556662 1.19055078897 2 80.842369569866875 1.19055078897 2 85.736317590364166 1.3886615678335421 2 93.241563709554612 1.19055078897 2 96.533450279468184 3.363030595806344 2 </DataArray>
<DataArray Name="forces" NumberOfComponents="3" format="ascii" type="Float32">0 0 0 9.4682690796191312e-05 -1.588710958180886e-05 0.0 1.1640561770071044e-05 0.00014540830010791495 0.0 -0.00032002718626607599 0.00080091835998736627 0.0 -0.002715148759253736 -0.002220610609646402 0.0 -0.0094193117434808564 0.01341713970929442 0.0 -0.0087730387461631629 -0.01667553391693876 0.0 -0.0033595330614470328 0.044368317604042112 0.0 0.013882655155252152 -0.046923894699840485 0.0 -0.013525947749937777 -0.011261922389038694 0.0 -0.068498509418267781 0.015138387376496719 0.0 0.026888425907147618 -0.010260757938599013 0.0 0.0044345773412316439 0.0043635937118135376 0.0 0.00074278588628569906 -0.0014598220748486105 0.0 -0.0081268144120942749 0.013105048532336313 0.0 -0.088653143930567405 -0.026711389979841581 0.0 -0.0044260673789030718 0.0057430330103286995 0.0 -0.0028401756817606205 -0.044683715808368739 0.0 7.7857022167124415e-05 4.9104542686724507e-05 0.0 -0.0003180662741641883 -7.9168609401504924e-05 0.0 -0.00069822601644958446 -0.00032576106239722073 0.0 -0.0015822190472134516 0.0028068836950927625 0.0 -0.0024661540733684167 -0.0073842316835758962 0.0 0.00037068941952511647 0.0062069025980594703 0.0 -0.021143149070397799 -0.038225919718259331 0.0 0.0087674274761317603 0.036763446425535508 0.0 0.030125565837187347 0.017464122977412767 0.0 0.04638513542821851 -0.00060633035430438615 0.0 0.0024300759478113236 0.0070762149344393427 0.0 -0.00021003666224486041 -7.6017932303853043e-05 0.0 0.001455288226500455 -0.00052703964778248714 0.0 -0.018962485598394772 -0.013772526261938145 0.0 0.061750889275998679 0.0035393447540106862 0.0 -0.01251242732422218 -0.0057430330103286995 0.0 -0.024849737346635023 0.031813263634494174 0.0 </DataArray>
<DataArray Name="radii" format="ascii" type="Float32">0 1.19055078897 1.19055078897 1.19055078897 1.19055078897 1.19055078897 1.19055078897 1.19055078897 1.19055078897 1.19055078897 1.19055078897 1.19055078897 1.19055078897 1.19055078897 1.19055078897 1.19055078897 1.19055078897 1.19055078897 1.19055078897 1.19055078897 1.19055078897 1.19055078897 1.19055078897 1.19055078897 1.19055078897 1.19055078897 1.19055078897 1.19055078897 1.19055078897 1.19055078897 1.19055078897 1.19055078897 1.19055078897 1.19055078897 1.19055078897 </DataArray>
</PointData>
<CellData/>
</Piece>
</UnstructuredGrid>
</VTKFile>
