<?xml version="1.0" ?>
<VTKFile byte_order="LittleEndian" type="UnstructuredGrid" version="0.1">
<UnstructuredGrid>
<Piece NumberOfCells="0" NumberOfPoints="72">
<Points>
<DataArray NumberOfComponents="3" format="ascii" type="Float32">27.657510612110414 12.591604440418598 2 98.66068921208084 8.0545251551282426 2 26.572976165563571 3.276234936655273 2 60.885520448785705 12.556463137699133 2 96.236986786258328 18.088989518831312 2 25.848454522367557 12.966128028029715 2 98.66068921208084 5.6497544822602839 2 29.595229480044846 9.2787361743827947 2 97.430881075056561 12.758102597673911 2 31.831179748319727 11.827543827374113 2 94.603924331885622 6.4750808688520776 2 24.589398595944321 7.2080075928830052 2 59.689684317928297 18.479732721355763 2 97.020310611596599 14.578142846717421 2 26.963401678724978 10.178322735405988 2 98.66068921208084 1.3393107879191641 2 28.018449229782956 5.9422667739319106 2 98.66068921208084 15.515954360006766 2 25.992864964172323 16.349888903096414 2 98.66068921208084 6.8793661210694879 2 28.766005498114531 1.3393107879191641 2 62.036944968443407 17.851142334774735 2 90.844252186243409 3.5676039809277578 2 98.66068921208084 18.659328986269927 2 96.64553819702931 3.5282495952954318 2 29.801879655074565 7.4807847369782818 2 98.66068921208084 10.707455042664467 2 30.457234795850191 16.411964232878105 2 96.194281843377581 6.1562471211819201 2 26.338569684653649 5.1734940685633832 2 59.557503858231236 14.014472907125864 2 94.304865577762314 12.430557766572203 2 24.575336717490359 9.8066339881695246 2 98.66068921208084 3.4994775624338947 2 26.811710846609412 8.3875681808811233 2 98.66068921208084 13.849729664340821 2 29.074186077689376 11.942413378989841 2 98.66068921208084 9.265546612759735 2 27.74389142329548 3.4864430594582432 2 61.618838520154732 14.234457809675973 2 94.320608939566995 17.308653011100883 2 24.501155379254399 14.443446606280485 2 98.66068921208084 4.5458368476635886 2 30.384838214438197 10.74112826084367 2 95.819592442091505 12.304058870389776 2 30.574008202266043 12.977327930726251 2 95.115051117161201 5.3718792090550895 2 25.354369180740157 8.5770945398022604 2 58.123100591048811 16.906424039218038 2 96.080139991988929 16.035651100196581 2 28.244715295997299 10.352404797572438 2 97.583992880657604 3.1073437443380052 2 29.541263876854028 6.2676236614321947 2 98.098698776630386 16.873515376200974 2 27.459906722824808 14.748633059372274 2 97.440807564217224 5.6431614111919606 2 28.785925696290565 2.6319179898598541 2 60.283571191589502 16.014165770710314 2 90.108997908841843 4.5391215113565551 2 96.955848643212917 20.241272976122922 2 96.594352317037036 4.7530635725298094 2 28.488372814874278 8.3233497195344057 2 97.495707029783972 10.374341620611172 2 29.407878503998138 14.443952866032173 2 97.077094022292982 7.1282576589368034 2 25.811343264478296 6.33678016164684 2 57.833533475071548 15.114284478843826 2 95.642841484034875 13.788314798173806 2 25.757475684563712 11.100393137734736 2 98.66068921208084 2.1681044678064492 2 27.310834672398009 7.0587941110839285 2 98.66068921208084 12.156860778334678 2 </DataArray>
</Points>
<Cells>
<DataArray Name="connectivity" format="ascii" type="Int32">0</DataArray>
<DataArray Name="offsets" format="ascii" type="Int32">0</DataArray>
<DataArray Name="types" format="ascii" type="UInt8">1</DataArray>
</Cells>
<PointData>
<DataArray Name="Points" NumberOfComponents="3" format="ascii" type="Float32">27.657510612110414 12.591604440418598 2 98.66068921208084 8.0545251551282426 2 26.572976165563571 3.276234936655273 2 60.885520448785705 12.556463137699133 2 96.236986786258328 18.088989518831312 2 25.848454522367557 12.966128028029715 2 98.66068921208084 5.6497544822602839 2 29.595229480044846 9.2787361743827947 2 97.430881075056561 12.758102597673911 2 31.831179748319727 11.827543827374113 2 94.603924331885622 6.4750808688520776 2 24.589398595944321 7.2080075928830052 2 59.689684317928297 18.479732721355763 2 97.020310611596599 14.578142846717421 2 26.963401678724978 10.178322735405988 2 98.66068921208084 1.3393107879191641 2 28.018449229782956 5.9422667739319106 2 98.66068921208084 15.515954360006766 2 25.992864964172323 16.349888903096414 2 98.66068921208084 6.8793661210694879 2 28.766005498114531 1.3393107879191641 2 62.036944968443407 17.851142334774735 2 90.844252186243409 3.5676039809277578 2 98.66068921208084 18.659328986269927 2 96.64553819702931 3.5282495952954318 2 29.801879655074565 7.4807847369782818 2 98.66068921208084 10.707455042664467 2 30.457234795850191 16.411964232878105 2 96.194281843377581 6.1562471211819201 2 26.338569684653649 5.1734940685633832 2 59.557503858231236 14.014472907125864 2 94.304865577762314 12.430557766572203 2 24.575336717490359 9.8066339881695246 2 98.66068921208084 3.4994775624338947 2 26.811710846609412 8.3875681808811233 2 98.66068921208084 13.849729664340821 2 29.074186077689376 11.942413378989841 2 98.66068921208084 9.265546612759735 2 27.74389142329548 3.4864430594582432 2 61.618838520154732 14.234457809675973 2 94.320608939566995 17.308653011100883 2 24.501155379254399 14.443446606280485 2 98.66068921208084 4.5458368476635886 2 30.384838214438197 10.74112826084367 2 95.819592442091505 12.304058870389776 2 30.574008202266043 12.977327930726251 2 95.115051117161201 5.3718792090550895 2 25.354369180740157 8.5770945398022604 2 58.123100591048811 16.906424039218038 2 96.080139991988929 16.035651100196581 2 28.244715295997299 10.352404797572438 2 97.583992880657604 3.1073437443380052 2 29.541263876854028 6.2676236614321947 2 98.098698776630386 16.873515376200974 2 27.459906722824808 14.748633059372274 2 97.440807564217224 5.6431614111919606 2 28.785925696290565 2.6319179898598541 2 60.283571191589502 16.014165770710314 2 90.108997908841843 4.5391215113565551 2 96.955848643212917 20.241272976122922 2 96.594352317037036 4.7530635725298094 2 28.488372814874278 8.3233497195344057 2 97.495707029783972 10.374341620611172 2 29.407878503998138 14.443952866032173 2 97.077094022292982 7.1282576589368034 2 25.811343264478296 6.33678016164684 2 57.833533475071548 15.114284478843826 2 95.642841484034875 13.788314798173806 2 25.757475684563712 11.100393137734736 2 98.66068921208084 2.1681044678064492 2 27.310834672398009 7.0587941110839285 2 98.66068921208084 12.156860778334678 2 </DataArray>
<DataArray Name="forces" NumberOfComponents="3" format="ascii" type="Float32">-0.086479188613247188 0.36881723610423689 0.0 1.9652466905847765 0.23534754469645242 0.0 -0.043611558749524493 0.079935114981354138 0.0 0.064491380628947659 0.35913167318929096 0.0 0.070495494455477981 0.52267611383703572 0.0 -0.1758872921961471 0.43602639214958117 0.0 2.3836349045937664 0.17489068027608751 0.0 -0.22368045808413217 0.38086550950798054 0.0 0.049572410204774986 0.33491065214718319 0.0 0.010331194152972567 0.3183931328678074 0.0 -0.058478322590794433 0.20476069714946582 0.0 -0.062483097637344942 0.23782041379809682 0.0 0.049312001958813544 0.53073446284734627 0.0 -0.055501610511518695 0.45670593043582314 0.0 -0.05081302591000747 0.37173300059062875 0.0 2.4412957602213061 -2.8968621907848409 0.0 -0.088827472380573536 0.23386265773733883 0.0 1.1998550878496053 0.27900580377383055 0.0 -0.18515547739085153 0.5791550766843212 0.0 2.0993996453555948 0.21141954488307729 0.0 -0.09623296671635595 -1.8466073431064436 0.0 0.14441615118738221 0.59800042211945525 0.0 -0.027321848372224899 0.12596155894548372 0.0 0.68917354669092434 0.57244197936288432 0.0 -0.065948537985271033 0.14209190769090263 0.0 -0.089584199455118446 0.20032458512205817 0.0 2.0632259843083696 0.22215598545564808 0.0 -0.17734817994952842 0.57543937903912912 0.0 -0.0079732032226845773 0.19031501155112918 0.0 -0.11229440376141897 0.16223174146022629 0.0 0.063126333281765645 0.32576621446197923 0.0 -0.013137213651521179 0.34926361843944853 0.0 -0.069567788639010919 0.34205351730147537 0.0 2.5525246018284995 0.12383559955910051 0.0 -0.12267750237247632 0.3996591751421309 0.0 1.5846008817844415 0.30331760596103619 0.0 0.037418427904092472 0.28675412566779179 0.0 2.0410142175921808 0.21215243772341241 0.0 -0.03457410143696836 0.13407246532424644 0.0 0.010482292476573785 0.46470319102719426 0.0 -0.066824766671682106 0.49356438702605548 0.0 -0.16141958701458681 0.51887015719796392 0.0 2.2779005367152583 0.15536027689864168 0.0 0.15662603624454835 0.27344007315766528 0.0 0.010736018775570177 0.36012549746886069 0.0 0.0076220186439211468 0.37493899231634986 0.0 0.0089192232151494924 0.20619067921322867 0.0 -0.14117257017692492 0.28279356444403031 0.0 -0.086855116984518504 0.53596487885566602 0.0 -0.0074479425208670846 0.51973784498718278 0.0 -0.03718838536859323 0.35714806127130255 0.0 -0.058497409595155259 0.1696324315943889 0.0 -0.04981627580130632 0.1502376857314266 0.0 0.19072377640766613 0.41715465305635352 0.0 -0.21826985783698827 0.45190430770865592 0.0 -0.0073891987315097274 0.17858755822974981 0.0 -0.014187769704594788 0.16951216304141803 0.0 0.0022045164364779546 0.55156681730375068 0.0 0.028617268221518555 0.1665502749212539 0.0 -0.013835733487214855 0.65425363428220429 0.0 -0.0084395274250470831 0.16432521069177614 0.0 -0.084230352792628915 0.19795874570639227 0.0 -0.034216123237305773 0.28065933822976585 0.0 -0.14093530074945271 0.37961990934223883 0.0 0.02529073602520647 0.23772526786411186 0.0 -0.015673987121790911 0.25861444473559825 0.0 0.10112126424423391 0.36114645583144206 0.0 0.01927368436313177 0.38444714143074571 0.0 -0.12048773699981838 0.35735382920355885 0.0 2.5587426854959654 0.16283227393097233 0.0 -0.0982971993821109 0.29431275995216988 0.0 1.7425673106817858 0.23903830638477647 0.0 </DataArray>
<DataArray Name="radii" format="ascii" type="Float32">1.3393107879191641 1.3393107879191641 1.3393107879191641 1.3393107879191641 1.3393107879191641 1.3393107879191641 1.3393107879191641 1.3393107879191641 1.3393107879191641 1.3393107879191641 1.3393107879191641 1.3393107879191641 1.3393107879191641 1.3393107879191641 1.3393107879191641 1.3393107879191641 1.3393107879191641 1.3393107879191641 1.3393107879191641 1.3393107879191641 1.3393107879191641 1.3393107879191641 1.3393107879191641 1.3393107879191641 1.3393107879191641 1.3393107879191641 1.3393107879191641 1.3393107879191641 1.3393107879191641 1.3393107879191641 1.3393107879191641 1.3393107879191641 1.3393107879191641 1.3393107879191641 1.3393107879191641 1.3393107879191641 1.3393107879191641 1.3393107879191641 1.3393107879191641 1.3393107879191641 1.3393107879191641 1.3393107879191641 1.3393107879191641 1.3393107879191641 1.3393107879191641 1.3393107879191641 1.3393107879191641 1.3393107879191641 1.3393107879191641 1.3393107879191641 1.3393107879191641 1.3393107879191641 1.3393107879191641 1.3393107879191641 1.3393107879191641 1.3393107879191641 1.3393107879191641 1.3393107879191641 1.3393107879191641 1.3393107879191641 1.3393107879191641 1.3393107879191641 1.3393107879191641 1.3393107879191641 1.3393107879191641 1.3393107879191641 1.3393107879191641 1.3393107879191641 1.3393107879191641 1.3393107879191641 1.3393107879191641 1.3393107879191641 </DataArray>
</PointData>
<CellData/>
</Piece>
</UnstructuredGrid>
</VTKFile>
