<?xml version="1.0" ?>
<VTKFile byte_order="LittleEndian" type="UnstructuredGrid" version="0.1">
<UnstructuredGrid>
<Piece NumberOfCells="0" NumberOfPoints="44">
<Points>
<DataArray NumberOfComponents="3" format="ascii" type="Float32">0 0 0 35.113751890689819 13.028449404226063 2 38.055607724480701 8.1898009005968042 2 81.555362072857307 1 2 36.816177299471825 19.396690641069984 2 36.86304463066935 11.773000814369528 2 81.642708099892943 14.511515531622162 2 33.936664406010131 12.789463162235343 2 37.649789949485339 4.7153737866735463 2 81.010416130970228 13.495146382024355 2 35.642545647774348 4.5761607658011982 2 37.514968091967233 1.4 2 80.352622917897421 1 2 34.697584024961458 14.549092289270094 2 35.907355835754309 9.7921621776906917 2 36.831074947487345 14.405438074658317 2 80.284683663775908 7.4118451558573595 2 40.897818772761013 1 2 35.867038999366976 1.2 2 38.397785999601155 1.4 2 82.459281738954189 8.3952443608796035 2 35.648289668480366 17.951576484394376 2 36.590230449795079 7.5645206501645843 2 79.814469537758313 16.55319635543573 2 36.633625662931536 2.798735467032107 2 81.317363401750626 4.9981775574008713 2 33.916378281690335 17.459070914108874 2 36.365103291527426 5.2152974271716648 2 80.00661467583393 12.566420720303885 2 38.096732499209629 3.521169611240877 2 37.562196527881859 17.932167316565597 2 36.704609294694791 1 2 80.878262282181467 2.5964941279200477 2 33.630762343300169 15.71431138194102 2 35.708097233600164 14.622042542553498 2 80.197386166562509 3.4992490739516464 2 35.877431301831308 16.053599818735833 2 37.016938523722992 4.1385027399397174 2 81.65994189414792 8.9854533909393197 2 38.115223410979304 20.709242814447315 2 37.478369478285643 2.6925850271891894 2 34.796372300919302 15.961066605156127 2 36.14044999740301 12.785204558366576 2 60.348153319647771 18.903143402840261 2 </DataArray>
</Points>
<Cells>
<DataArray Name="connectivity" format="ascii" type="Int32">0</DataArray>
<DataArray Name="offsets" format="ascii" type="Int32">0</DataArray>
<DataArray Name="types" format="ascii" type="UInt8">1</DataArray>
</Cells>
<PointData>
<DataArray Name="Points" NumberOfComponents="3" format="ascii" type="Float32">0 0 0 35.113751890689819 13.028449404226063 2 38.055607724480701 8.1898009005968042 2 81.555362072857307 1 2 36.816177299471825 19.396690641069984 2 36.86304463066935 11.773000814369528 2 81.642708099892943 14.511515531622162 2 33.936664406010131 12.789463162235343 2 37.649789949485339 4.7153737866735463 2 81.010416130970228 13.495146382024355 2 35.642545647774348 4.5761607658011982 2 37.514968091967233 1.4 2 80.352622917897421 1 2 34.697584024961458 14.549092289270094 2 35.907355835754309 9.7921621776906917 2 36.831074947487345 14.405438074658317 2 80.284683663775908 7.4118451558573595 2 40.897818772761013 1 2 35.867038999366976 1.2 2 38.397785999601155 1.4 2 82.459281738954189 8.3952443608796035 2 35.648289668480366 17.951576484394376 2 36.590230449795079 7.5645206501645843 2 79.814469537758313 16.55319635543573 2 36.633625662931536 2.798735467032107 2 81.317363401750626 4.9981775574008713 2 33.916378281690335 17.459070914108874 2 36.365103291527426 5.2152974271716648 2 80.00661467583393 12.566420720303885 2 38.096732499209629 3.521169611240877 2 37.562196527881859 17.932167316565597 2 36.704609294694791 1 2 80.878262282181467 2.5964941279200477 2 33.630762343300169 15.71431138194102 2 35.708097233600164 14.622042542553498 2 80.197386166562509 3.4992490739516464 2 35.877431301831308 16.053599818735833 2 37.016938523722992 4.1385027399397174 2 81.65994189414792 8.9854533909393197 2 38.115223410979304 20.709242814447315 2 37.478369478285643 2.6925850271891894 2 34.796372300919302 15.961066605156127 2 36.14044999740301 12.785204558366576 2 60.348153319647771 18.903143402840261 2 </DataArray>
<DataArray Name="forces" NumberOfComponents="3" format="ascii" type="Float32">0 0 0 0.0040054032439162113 0.40107466598423092 0.0 -0.11841474540875285 0.34637779315081896 0.0 0.39908183975491796 -3.6358715301391848 0.0 -0.16010987365982984 0.44715706531998262 0.0 -0.06712341025466162 0.32703484913840264 0.0 -0.01905818224809086 0.35441254596567368 0.0 0.094212916880294872 0.45228070377001672 0.0 -0.17875916086359483 0.044917884127636781 0.0 -0.10232946915770352 0.35702798988547202 0.0 0.077127151015597917 0.048291724944485415 0.0 -0.060272066152209883 -2.4621257167680901 0.0 0.054411954189364842 -3.3361344043515402 0.0 0.18219813531903462 0.45901324744061195 0.0 -0.03961522053728328 0.2044841026770651 0.0 -0.0043877424503038567 0.58511715184156832 0.0 -0.054436133526185287 0.17875407879759694 0.0 0.19242186921999627 -2.8810010173934577 0.0 0.04960680283567985 -2.5186768798244668 0.0 -0.18019953987322757 -3.017963851943553 0.0 -0.12000547023608837 0.13587794724759045 0.0 -0.0046847610968873687 0.48304978084083283 0.0 0.10372145576340366 0.086616736906148351 0.0 0.058515914424702387 0.21263777053514499 0.0 0.087753366071509631 0.044586959085799016 0.0 0.092195806274459113 0.082286837602790985 0.0 0.34021883741889114 0.36924496013192187 0.0 0.047508240642236521 0.058476922535530385 0.0 0.14189093637858358 0.3378444374440559 0.0 -0.12085076890627944 0.14506715676033963 0.0 -0.24518038927926963 0.34981199060050755 0.0 -0.010470276312957605 -2.4527430275741389 0.0 0.082934344265564897 0.018211753170434108 0.0 0.2968829034917464 0.45350700237172731 0.0 0.050662162440879024 0.42308279298706508 0.0 0.067275270599611553 0.01523821120079151 0.0 -0.24179718069310607 0.46277763412150474 0.0 -0.061574206997696793 -0.054153144887313556 0.0 -0.036139409261877392 0.3204164997452007 0.0 -0.2907779898513202 0.7565245326319151 0.0 0.1316743014803301 -0.1360545042549266 0.0 0.08423812135501349 0.43090128146869944 0.0 0.038315868003860887 0.51192246057215929 0.0 0.03971800124715541 0.66438870352974266 0.0 </DataArray>
<DataArray Name="radii" format="ascii" type="Float32">0 1.2 1.4 1 1 1.2 1.2 1.2 1 1 1 1.4 1 1 1.2 1.4 1.4 1 1.2 1.4 1.4 1.4 1 1 1.2 1.2 1.4 1.4 1 1 1.2 1 1 1 1 1 1 1 1.2 1.2 1.4 1 1.4 1.2 </DataArray>
</PointData>
<CellData/>
</Piece>
</UnstructuredGrid>
</VTKFile>
