<?xml version="1.0" ?>
<VTKFile byte_order="LittleEndian" type="UnstructuredGrid" version="0.1">
<UnstructuredGrid>
<Piece NumberOfCells="0" NumberOfPoints="256">
<Points>
<DataArray NumberOfComponents="3" format="ascii" type="Float32">1.4 6.2176586277655064 2 9.876500599792525 8.7309558023091327 2 17.720533386911779 6.2042859287641017 2 28.131300188800807 14.459745243570902 2 8.6749898841964672 6.3785031227958937 2 13.179586437139955 12.853882019663644 2 15.532591058805311 14.814921360152796 2 23.703598353886914 8.3094691771334652 2 1.4 14.520204757447306 2 13.641833112655418 18.429150054104575 2 22.918603259753482 14.770383741065848 2 24.049166648911942 3.4804231723395591 2 4.5008530927229176 5.3978888102958349 2 10.902421451733391 11.979112704533312 2 17.820345164099603 9.623406956500677 2 26.133484375564549 14.062701011302194 2 4.1425153552745266 1.4 2 13.53146918603041 1.4 2 20.662884988060178 3.6544028582477202 2 27.410228417594769 10.167897892232704 2 8.9682200446329041 13.458379981584262 2 10.872706540332416 17.350708831021937 2 18.973431304487058 10.108500755154109 2 22.965105471419381 1.4 2 4.3486881128773192 15.217064274622679 2 15.048136210328819 6.8361650681267587 2 20.159973437666437 17.019596152565594 2 27.900949057269138 4.9626930496703494 2 6.7576227161379112 2.5165011788533747 2 11.290436001365823 1.4 2 18.29664020930144 1.4 2 23.269788221319835 19.671898517153156 2 1.4 10.318771761585284 2 9.2884364997142637 3.9609756726358714 2 19.79319491203017 2.6536360657111766 2 30.103983849500814 21.35956547802947 2 5.5902938089836542 8.9235383536842843 2 13.946509267873633 8.8727136544403926 2 18.511845121307076 12.109001299990565 2 23.845982193442133 9.8988030349792364 2 3.7309986840717073 13.620181659980028 2 15.205294353167782 19.526200817129002 2 21.4734540205909 12.400850872306883 2 25.312812195245556 3.7933021442708417 2 4.6598511380558207 7.7400628814860291 2 8.3909324365372271 9.0501544962485525 2 15.961764419255239 7.8387186897966439 2 25.396580852872052 11.613911334970524 2 2.4770756624941028 3.7081804446547664 2 11.383096288711924 5.9103133882833436 2 20.980940951910959 8.3687068872533636 2 26.686845646634787 8.0779325747515234 2 3.5912910466751153 19.730869686047438 2 7.5669095936961499 21.096412542597754 2 18.900705252538433 15.697451944959685 2 22.62536805875617 5.6102419823913019 2 2.9756891641278012 15.684883984072792 2 15.075762331914509 10.462271072619814 2 21.635779527231488 21.218317607176967 2 26.570746969603956 1.4 2 6.2792128075044911 3.7605011019709038 2 7.641578961996867 3.8057806344853113 2 14.722077875812605 1.4 2 25.787397562437956 20.076914146387448 2 2.5599453594560191 5.7790641117540256 2 8.9030912716587913 10.612659431667696 2 17.638597082626188 3.8550472339066673 2 30.37668061893471 15.711984053275648 2 5.9229426444698126 5.026325913842606 2 11.501872846919884 10.690155362527829 2 15.768167281275474 12.395222417262769 2 25.971245769329517 6.5158956705606217 2 1.4 12.146281668471845 2 13.667991531879528 14.503482340692374 2 24.529993381831144 14.180370523925873 2 25.406501762881504 1.4 2 3.4855200697407027 4.4544845164997993 2 10.445238609223029 13.963004437360452 2 19.10216242269005 6.8227370838974579 2 26.425482558687662 15.462972143292214 2 2.3407096086471619 1.4 2 12.932130394173248 2.7324744673865649 2 19.287496686717283 3.9933992650697334 2 28.597057104496258 11.640020001277813 2 7.0544193189576339 14.641484945547729 2 11.613656035568779 19.182274550641282 2 18.12195518730077 13.976177519696645 2 21.847442642783101 4.1761827768829978 2 5.3782645321080427 12.758938925100308 2 16.125020694659842 3.8680239037519244 2 20.623055810651032 14.842983153149007 2 28.42380167576728 3.6725986737399934 2 7.6822369735523282 1.4 2 10.620215531572429 4.0591928461292035 2 17.127573130580199 1.4 2 21.161965639092323 18.805586769491729 2 1.4 7.4548109967913394 2 9.9799288684275425 6.6850604015224837 2 20.649803800197649 1.4 2 27.74186662013323 20.898712286943972 2 6.8987272529649895 9.1043258265899869 2 12.324052795793353 8.2327574738737912 2 16.320329865868803 10.767507707871635 2 22.35889326842835 8.2490085834346001 2 4.0059874239099633 12.130690133347089 2 14.979588348442366 21.929148263787784 2 23.204682388061979 12.590190655257736 2 24.218857970017339 5.1610803410005284 2 2.5093966434068742 8.5915269436869366 2 7.8358851925775879 11.598666045585796 2 16.344084549985688 6.2653302076895372 2 25.085789982299719 8.5900125193824426 2 1.4 1.4 2 13.624427261221868 6.3423677239441938 2 21.794010592833242 10.959650201655425 2 28.953395680757048 7.5590844794385212 2 5.8646182083927778 19.079191922983242 2 9.1843981055570953 17.081408707714839 2 16.981928148594957 13.059505563686319 2 21.351749020477762 6.1464293292393011 2 1.4 19.369672906134934 2 14.123320985937195 11.390987008394937 2 19.3496540315838 19.96591579172734 2 27.746526659257047 1.4 2 5.3633466603268598 6.2939090640048647 2 8.9003383719892373 1.4 2 14.922548691497861 4.2881750370676359 2 26.590960274816581 17.761961317866678 2 1.4 4.9274066493719557 2 10.804206056189166 7.8405457779573737 2 17.398351412360807 7.4877638780355538 2 27.827073630491363 16.238070082146233 2 6.9914986578289806 6.4061674651000287 2 11.773467333611757 13.312971552903999 2 15.601830219270534 17.198210075359881 2 23.906777490750137 6.436861866035696 2 1.4 16.4974133259235 2 12.656143639365657 16.876502434364411 2 23.787202322590851 15.962990211027373 2 24.075278889947576 1.4 2 4.9081016639351285 3.9063239879344849 2 9.5233465081646607 12.028451053732439 2 18.511639869299348 8.0880134718387833 2 26.674058102594046 12.772918714357527 2 5.2640209141477596 1.4 2 12.428464633119663 1.4 2 20.71390735919875 4.9833340945598614 2 26.787640568133398 11.283515670029745 2 7.4160533352760822 12.969609428479338 2 12.246300599927855 15.180016746162671 2 20.875962908410759 9.7766684318669572 2 22.902867718201588 2.8486284536166422 2 5.7172510955078337 14.292319300269197 2 15.124691395946879 5.4727480455925575 2 18.811996160728487 17.976797906992626 2 27.186083045347637 6.9145128414225256 2 6.4637809439168894 1.4 2 11.067212693192008 2.6320335245160429 2 17.026265580423555 2.631317177600744 2 24.719720518833636 18.296489956866022 2 2.7266576737398225 10.197227796482155 2 8.5637828913226386 5.076870828824549 2 19.465972936561293 1.4 2 29.609430203905458 19.05934548503873 2 5.4094541746207137 10.401171683477591 2 13.676139525434275 7.5233222253910403 2 20.038880135452906 10.90015766471301 2 23.362536810415168 11.273989758016933 2 2.036110201108948 13.618103456960066 2 17.113465745765787 18.772782428940769 2 19.993092739093495 12.35677442830956 2 26.696535380225622 5.1301880048009103 2 3.2924267038161918 7.599365128050203 2 8.7694930541348697 7.7355333981233132 2 16.700964400205493 9.0362825407547138 2 25.079847072823529 10.281835748031424 2 1.4 3.6483947822474874 2 11.981874840257692 6.9821171603987136 2 19.671959304346412 8.6344100825037664 2 28.00653472920829 8.6560693656934919 2 4.9857321091000273 21.533516145520412 2 7.8858077334876402 18.691879125823849 2 17.360011942849987 16.552859833870066 2 23.101652001441622 4.3297560572970895 2 4.4466807176289942 17.468256610410265 2 15.252981598210514 8.9431517317825868 2 19.443389998003322 22.417327673819781 2 26.439381809287841 2.6348393718970611 2 5.1332090799966492 2.61765784277403 2 9.6332427198031247 2.7036386262873875 2 14.278334260464547 2.9136443270314825 2 24.275374178777302 21.848500218914431 2 3.5991377241936888 6.3638427292462936 2 10.176002026942443 10.05740518404383 2 18.423843946195085 2.7528880093443102 2 29.171275134079465 16.92307991238966 2 7.3021464168290313 5.1556867804106545 2 11.746530324888459 9.3625938726532905 2 14.757911420565641 13.229100807397376 2 24.828440502159491 7.280712724732072 2 2.5002084828919391 11.801385250943175 2 14.413671269994099 16.122655119078544 2 24.573218396065435 12.755741812103704 2 24.772267126567428 2.3694095036794729 2 3.7134893661400428 3.2159849922536314 2 10.465444724184469 15.474537636211465 2 19.547209247521543 5.6291691770199659 2 25.151095561037177 16.39386003261647 2 3.2704944884555718 1.4533545332072884 2 11.920656473587185 3.5220095588180218 2 18.421085500820446 4.9967878597198689 2 28.192366802873796 12.894690829095341 2 8.5066747456935801 15.209270667681622 2 9.7068483551368754 19.715430725416535 2 19.619748885418751 13.813268749358803 2 21.597041425054449 2.6211490433152878 2 6.1545818458596777 11.651247201560203 2 15.54573493075719 2.6350082943760182 2 21.57949954799156 16.219619525873018 2 26.643606775846337 3.8260808887698903 2 8.3226161419438487 2.6986006458048291 2 11.92727345068211 4.8234253348439351 2 15.93325079784738 1.4 2 22.771596163786842 17.523610743328636 2 1.4 8.7996187886064003 2 10.035747286665584 5.3106724508804506 2 21.830507116695888 1.4 2 28.347023924535481 23.191200036797078 2 7.4267540907248737 7.6461221791631555 2 13.227431530555746 9.9592104981729204 2 17.551741414286894 11.330643000200693 2 22.537570222721985 6.9763101600492128 2 4.0747998560889345 10.554845537818196 2 12.843655946980961 20.893732383298641 2 21.974607742539831 13.728429367682876 2 25.429854227628628 5.2063934090699862 2 4.0592103972474458 9.0815560747655155 2 7.2017067126957697 10.34723908743001 2 16.876509961319798 4.9731675800955051 2 26.273250470917016 9.307797437253436 2 1.4 2.4381287402828473 2 13.535274672792132 4.0154138320522668 2 22.460099649247784 9.709773485172839 2 28.324518870759885 6.3561502193294857 2 5.8599662804982584 16.498321412301149 2 7.2371649045664563 16.844126881495633 2 16.825685832871542 14.908105561759609 2 20.48281851114282 7.0698319289333948 2 2.5320416849402134 17.732702956266856 2 12.725408620312804 11.443189753111952 2 17.246476163486292 21.107254406846565 2 27.902523117343577 2.698176738322501 2 6.0227110658697907 7.4789644077759387 2 10.134946763853419 1.4 2 13.200380383397865 5.2350960205783421 2 27.864528610522903 18.739608162989256 2 </DataArray>
</Points>
<Cells>
<DataArray Name="connectivity" format="ascii" type="Int32">0</DataArray>
<DataArray Name="offsets" format="ascii" type="Int32">0</DataArray>
<DataArray Name="types" format="ascii" type="UInt8">1</DataArray>
</Cells>
<PointData>
<DataArray Name="Points" NumberOfComponents="3" format="ascii" type="Float32">1.4 6.2176586277655064 2 9.876500599792525 8.7309558023091327 2 17.720533386911779 6.2042859287641017 2 28.131300188800807 14.459745243570902 2 8.6749898841964672 6.3785031227958937 2 13.179586437139955 12.853882019663644 2 15.532591058805311 14.814921360152796 2 23.703598353886914 8.3094691771334652 2 1.4 14.520204757447306 2 13.641833112655418 18.429150054104575 2 22.918603259753482 14.770383741065848 2 24.049166648911942 3.4804231723395591 2 4.5008530927229176 5.3978888102958349 2 10.902421451733391 11.979112704533312 2 17.820345164099603 9.623406956500677 2 26.133484375564549 14.062701011302194 2 4.1425153552745266 1.4 2 13.53146918603041 1.4 2 20.662884988060178 3.6544028582477202 2 27.410228417594769 10.167897892232704 2 8.9682200446329041 13.458379981584262 2 10.872706540332416 17.350708831021937 2 18.973431304487058 10.108500755154109 2 22.965105471419381 1.4 2 4.3486881128773192 15.217064274622679 2 15.048136210328819 6.8361650681267587 2 20.159973437666437 17.019596152565594 2 27.900949057269138 4.9626930496703494 2 6.7576227161379112 2.5165011788533747 2 11.290436001365823 1.4 2 18.29664020930144 1.4 2 23.269788221319835 19.671898517153156 2 1.4 10.318771761585284 2 9.2884364997142637 3.9609756726358714 2 19.79319491203017 2.6536360657111766 2 30.103983849500814 21.35956547802947 2 5.5902938089836542 8.9235383536842843 2 13.946509267873633 8.8727136544403926 2 18.511845121307076 12.109001299990565 2 23.845982193442133 9.8988030349792364 2 3.7309986840717073 13.620181659980028 2 15.205294353167782 19.526200817129002 2 21.4734540205909 12.400850872306883 2 25.312812195245556 3.7933021442708417 2 4.6598511380558207 7.7400628814860291 2 8.3909324365372271 9.0501544962485525 2 15.961764419255239 7.8387186897966439 2 25.396580852872052 11.613911334970524 2 2.4770756624941028 3.7081804446547664 2 11.383096288711924 5.9103133882833436 2 20.980940951910959 8.3687068872533636 2 26.686845646634787 8.0779325747515234 2 3.5912910466751153 19.730869686047438 2 7.5669095936961499 21.096412542597754 2 18.900705252538433 15.697451944959685 2 22.62536805875617 5.6102419823913019 2 2.9756891641278012 15.684883984072792 2 15.075762331914509 10.462271072619814 2 21.635779527231488 21.218317607176967 2 26.570746969603956 1.4 2 6.2792128075044911 3.7605011019709038 2 7.641578961996867 3.8057806344853113 2 14.722077875812605 1.4 2 25.787397562437956 20.076914146387448 2 2.5599453594560191 5.7790641117540256 2 8.9030912716587913 10.612659431667696 2 17.638597082626188 3.8550472339066673 2 30.37668061893471 15.711984053275648 2 5.9229426444698126 5.026325913842606 2 11.501872846919884 10.690155362527829 2 15.768167281275474 12.395222417262769 2 25.971245769329517 6.5158956705606217 2 1.4 12.146281668471845 2 13.667991531879528 14.503482340692374 2 24.529993381831144 14.180370523925873 2 25.406501762881504 1.4 2 3.4855200697407027 4.4544845164997993 2 10.445238609223029 13.963004437360452 2 19.10216242269005 6.8227370838974579 2 26.425482558687662 15.462972143292214 2 2.3407096086471619 1.4 2 12.932130394173248 2.7324744673865649 2 19.287496686717283 3.9933992650697334 2 28.597057104496258 11.640020001277813 2 7.0544193189576339 14.641484945547729 2 11.613656035568779 19.182274550641282 2 18.12195518730077 13.976177519696645 2 21.847442642783101 4.1761827768829978 2 5.3782645321080427 12.758938925100308 2 16.125020694659842 3.8680239037519244 2 20.623055810651032 14.842983153149007 2 28.42380167576728 3.6725986737399934 2 7.6822369735523282 1.4 2 10.620215531572429 4.0591928461292035 2 17.127573130580199 1.4 2 21.161965639092323 18.805586769491729 2 1.4 7.4548109967913394 2 9.9799288684275425 6.6850604015224837 2 20.649803800197649 1.4 2 27.74186662013323 20.898712286943972 2 6.8987272529649895 9.1043258265899869 2 12.324052795793353 8.2327574738737912 2 16.320329865868803 10.767507707871635 2 22.35889326842835 8.2490085834346001 2 4.0059874239099633 12.130690133347089 2 14.979588348442366 21.929148263787784 2 23.204682388061979 12.590190655257736 2 24.218857970017339 5.1610803410005284 2 2.5093966434068742 8.5915269436869366 2 7.8358851925775879 11.598666045585796 2 16.344084549985688 6.2653302076895372 2 25.085789982299719 8.5900125193824426 2 1.4 1.4 2 13.624427261221868 6.3423677239441938 2 21.794010592833242 10.959650201655425 2 28.953395680757048 7.5590844794385212 2 5.8646182083927778 19.079191922983242 2 9.1843981055570953 17.081408707714839 2 16.981928148594957 13.059505563686319 2 21.351749020477762 6.1464293292393011 2 1.4 19.369672906134934 2 14.123320985937195 11.390987008394937 2 19.3496540315838 19.96591579172734 2 27.746526659257047 1.4 2 5.3633466603268598 6.2939090640048647 2 8.9003383719892373 1.4 2 14.922548691497861 4.2881750370676359 2 26.590960274816581 17.761961317866678 2 1.4 4.9274066493719557 2 10.804206056189166 7.8405457779573737 2 17.398351412360807 7.4877638780355538 2 27.827073630491363 16.238070082146233 2 6.9914986578289806 6.4061674651000287 2 11.773467333611757 13.312971552903999 2 15.601830219270534 17.198210075359881 2 23.906777490750137 6.436861866035696 2 1.4 16.4974133259235 2 12.656143639365657 16.876502434364411 2 23.787202322590851 15.962990211027373 2 24.075278889947576 1.4 2 4.9081016639351285 3.9063239879344849 2 9.5233465081646607 12.028451053732439 2 18.511639869299348 8.0880134718387833 2 26.674058102594046 12.772918714357527 2 5.2640209141477596 1.4 2 12.428464633119663 1.4 2 20.71390735919875 4.9833340945598614 2 26.787640568133398 11.283515670029745 2 7.4160533352760822 12.969609428479338 2 12.246300599927855 15.180016746162671 2 20.875962908410759 9.7766684318669572 2 22.902867718201588 2.8486284536166422 2 5.7172510955078337 14.292319300269197 2 15.124691395946879 5.4727480455925575 2 18.811996160728487 17.976797906992626 2 27.186083045347637 6.9145128414225256 2 6.4637809439168894 1.4 2 11.067212693192008 2.6320335245160429 2 17.026265580423555 2.631317177600744 2 24.719720518833636 18.296489956866022 2 2.7266576737398225 10.197227796482155 2 8.5637828913226386 5.076870828824549 2 19.465972936561293 1.4 2 29.609430203905458 19.05934548503873 2 5.4094541746207137 10.401171683477591 2 13.676139525434275 7.5233222253910403 2 20.038880135452906 10.90015766471301 2 23.362536810415168 11.273989758016933 2 2.036110201108948 13.618103456960066 2 17.113465745765787 18.772782428940769 2 19.993092739093495 12.35677442830956 2 26.696535380225622 5.1301880048009103 2 3.2924267038161918 7.599365128050203 2 8.7694930541348697 7.7355333981233132 2 16.700964400205493 9.0362825407547138 2 25.079847072823529 10.281835748031424 2 1.4 3.6483947822474874 2 11.981874840257692 6.9821171603987136 2 19.671959304346412 8.6344100825037664 2 28.00653472920829 8.6560693656934919 2 4.9857321091000273 21.533516145520412 2 7.8858077334876402 18.691879125823849 2 17.360011942849987 16.552859833870066 2 23.101652001441622 4.3297560572970895 2 4.4466807176289942 17.468256610410265 2 15.252981598210514 8.9431517317825868 2 19.443389998003322 22.417327673819781 2 26.439381809287841 2.6348393718970611 2 5.1332090799966492 2.61765784277403 2 9.6332427198031247 2.7036386262873875 2 14.278334260464547 2.9136443270314825 2 24.275374178777302 21.848500218914431 2 3.5991377241936888 6.3638427292462936 2 10.176002026942443 10.05740518404383 2 18.423843946195085 2.7528880093443102 2 29.171275134079465 16.92307991238966 2 7.3021464168290313 5.1556867804106545 2 11.746530324888459 9.3625938726532905 2 14.757911420565641 13.229100807397376 2 24.828440502159491 7.280712724732072 2 2.5002084828919391 11.801385250943175 2 14.413671269994099 16.122655119078544 2 24.573218396065435 12.755741812103704 2 24.772267126567428 2.3694095036794729 2 3.7134893661400428 3.2159849922536314 2 10.465444724184469 15.474537636211465 2 19.547209247521543 5.6291691770199659 2 25.151095561037177 16.39386003261647 2 3.2704944884555718 1.4533545332072884 2 11.920656473587185 3.5220095588180218 2 18.421085500820446 4.9967878597198689 2 28.192366802873796 12.894690829095341 2 8.5066747456935801 15.209270667681622 2 9.7068483551368754 19.715430725416535 2 19.619748885418751 13.813268749358803 2 21.597041425054449 2.6211490433152878 2 6.1545818458596777 11.651247201560203 2 15.54573493075719 2.6350082943760182 2 21.57949954799156 16.219619525873018 2 26.643606775846337 3.8260808887698903 2 8.3226161419438487 2.6986006458048291 2 11.92727345068211 4.8234253348439351 2 15.93325079784738 1.4 2 22.771596163786842 17.523610743328636 2 1.4 8.7996187886064003 2 10.035747286665584 5.3106724508804506 2 21.830507116695888 1.4 2 28.347023924535481 23.191200036797078 2 7.4267540907248737 7.6461221791631555 2 13.227431530555746 9.9592104981729204 2 17.551741414286894 11.330643000200693 2 22.537570222721985 6.9763101600492128 2 4.0747998560889345 10.554845537818196 2 12.843655946980961 20.893732383298641 2 21.974607742539831 13.728429367682876 2 25.429854227628628 5.2063934090699862 2 4.0592103972474458 9.0815560747655155 2 7.2017067126957697 10.34723908743001 2 16.876509961319798 4.9731675800955051 2 26.273250470917016 9.307797437253436 2 1.4 2.4381287402828473 2 13.535274672792132 4.0154138320522668 2 22.460099649247784 9.709773485172839 2 28.324518870759885 6.3561502193294857 2 5.8599662804982584 16.498321412301149 2 7.2371649045664563 16.844126881495633 2 16.825685832871542 14.908105561759609 2 20.48281851114282 7.0698319289333948 2 2.5320416849402134 17.732702956266856 2 12.725408620312804 11.443189753111952 2 17.246476163486292 21.107254406846565 2 27.902523117343577 2.698176738322501 2 6.0227110658697907 7.4789644077759387 2 10.134946763853419 1.4 2 13.200380383397865 5.2350960205783421 2 27.864528610522903 18.739608162989256 2 </DataArray>