<?xml version="1.0" ?>
<VTKFile byte_order="LittleEndian" type="UnstructuredGrid" version="0.1">
<UnstructuredGrid>
<Piece NumberOfCells="0" NumberOfPoints="385">
<Points>
<DataArray NumberOfComponents="3" format="ascii" type="Float32">0 0 0 30.756435444353517 14.39213151080558 2 48.023842529268855 9.5288153406959832 2 63.271096052992561 17.554340440711144 2 34.547848618683055 8.618417153699216 2 46.525639826437072 6.4707723288049825 2 60.905758592804844 21.994010643650771 2 29.893728470128966 1.4 2 49.760760768587438 3.8035842302811793 2 65.945263492269703 4.5556587372611519 2 37.146649016683043 16.338896802531291 2 45.740336903228993 11.491974581952796 2 61.351488633392364 2.1047337217377668 2 33.196640525334018 24.619484617478307 2 48.446230274249046 10.599311348933648 2 61.045801250260347 9.9238838884066869 2 34.471187986186976 1.4 2 43.385549586408573 1.4 2 57.443199829776468 13.336203005245583 2 28.863119513741189 9.7782672166243056 2 44.121026441918822 3.8234847799320542 2 66.842953053398446 9.9633542011935958 2 32.735778148500188 12.675278321908253 2 46.660270302206314 18.330091356010424 2 65.57637693263365 1.4 2 31.817981699337889 16.704509050708417 2 50.167255739220828 10.15453876111145 2 61.469123582924652 12.265282269910008 2 33.806613401666056 6.1796549062249513 2 44.729998299860007 10.406332372138225 2 59.827616622962154 15.928163670215955 2 31.299332930157338 6.4324885354621024 2 49.621582293276276 7.4072926945978299 2 65.536987210394443 7.9546099466487963 2 39.711126421040305 24.087638950324461 2 44.061087807502972 18.020399056945823 2 60.618964121715713 4.1709937231366148 2 34.584435114201135 16.2947789303111 2 49.646401831036982 15.343513788072865 2 60.521196007198284 5.9030881605249705 2 31.1873254339094 3.1169838720823635 2 43.387371823760674 4.5084816845723275 2 56.679887542916788 14.543594663522176 2 33.624742775906832 7.5009042612265686 2 48.518220418438638 3.1950800507096928 2 63.008196537927496 8.4402007754877744 2 35.580207253869084 12.937994481457116 2 49.177800542023704 22.857204305231782 2 63.175138657975204 5.6966848130131797 2 30.514813935844451 12.553644866097576 2 46.158751249929992 8.6627648695850521 2 62.228349190074063 18.628046283026489 2 33.226450584448664 10.654165134794399 2 46.780671263932462 4.3626329132358839 2 63.159390191847123 22.464015099281276 2 29.951294838961431 4.7267606829339366 2 50.995613173273824 1.4 2 67.318820357483446 3.306720014137154 2 34.679472515021345 20.782110691196682 2 47.289647236417366 13.597646758898438 2 62.351284207578225 2.7019488907548843 2 35.264983248045134 24.558692630017237 2 47.365648176054812 16.070858391258763 2 63.915978226153378 12.0386735642084 2 35.508377975868797 1.4 2 44.748887422083065 1.4 2 60.028538125973512 13.321909859497044 2 30.772404888730229 8.4150113259170389 2 46.168600884646537 3.311123841590458 2 67.734405081464516 11.828408447875228 2 31.301099609181104 13.318033522627582 2 46.409269831274237 21.094862330286553 2 63.129818236700856 1.4 2 31.426347439652517 19.450074824359568 2 51.259127446020287 8.4037344305522925 2 61.389797983011633 15.516275573977273 2 32.679766849784407 4.596469665942716 2 44.664414859753009 11.485152929478573 2 58.880213197009773 20.634380761330846 2 29.328753181758568 5.6702292381356827 2 47.413933567874082 5.8041344675805666 2 64.487469814329273 3.0077449368924429 2 38.895372655700861 19.427794912591882 2 44.646073797926846 21.056503974962709 2 58.630856776639611 1.4 2 33.293851493901848 20.672875086922947 2 48.591891514188696 17.035808074406944 2 61.276844748067013 6.6331599968376693 2 32.050004712835985 1.4 2 43.794690962158391 6.1797494806913313 2 55.048037687485362 18.251032244362527 2 31.82703648749316 9.6476762872833923 2 48.616985421166845 1.4 2 65.013353432631092 8.8245454119847118 2 37.149637605207495 12.78139610454437 2 51.316240345508334 23.276763621452716 2 62.136572936036458 5.4894678116484288 2 29.095368715827171 15.88421900687095 2 48.790700434057321 7.9726909841239237 2 64.433662090034119 19.707775754867118 2 34.707783926967245 9.777702147112624 2 44.678335367936896 7.3973898235205997 2 62.438540620576731 24.212526581099691 2 29.649795986332126 2.9463922280316828 2 50.351459221771727 4.6680617132003706 2 65.48485085454405 3.5000449118321151 2 35.51132794703674 18.989773826809031 2 47.327941035496401 10.501081612846708 2 61.902487274110797 1.4 2 31.859424883589011 20.763415042446205 2 47.432337283609826 12.445511423908671 2 62.196152067904706 9.1072135440685269 2 33.213812784585471 1.4 2 42.715385187356347 1.4 2 58.717553653283844 12.252609802174101 2 29.288573772370196 10.980032879546503 2 45.875531958373877 4.2938525354902248 2 67.674141461423787 8.8372575310091221 2 35.046948601861317 13.904876516471637 2 45.981414777903872 16.379525242223011 2 66.209778550732423 1.4 2 33.076101758061213 16.566372800676874 2 50.176954600508523 8.0877838559003035 2 61.23542746775852 13.301377299120722 2 33.068029609722053 5.6214724276387722 2 44.964154659295417 8.6313725792767766 2 56.929046380723655 15.701784873782257 2 30.700905635941041 5.4227053512535743 2 48.465041504584747 5.9934647949653916 2 63.852483900000635 7.5092293071728236 2 38.754478807290475 20.735537826744586 2 45.492669076912371 18.149363568210934 2 59.525046239773005 2.940655764501479 2 32.891567063908042 14.935752274766914 2 49.934940469817604 13.323902758218235 2 59.757251402569615 6.4350891501273839 2 32.886768984055138 3.6672973224929581 2 43.7633011743821 2.1053736055129391 2 55.657587206903102 15.719519514364231 2 31.625868957087043 8.6710731502088514 2 47.78860784231189 4.9396039843527078 2 62.141156841686538 6.5292999251491146 2 34.970505813094199 15.045945145703465 2 48.447022034507093 24.609213196850053 2 63.855060725979932 4.9163653631007547 2 29.699723466848063 13.934060302117425 2 47.417210362111462 8.7302013284596907 2 60.436220670765749 18.032169593280059 2 33.714848603503853 9.6849596386318186 2 45.192684518666567 3.5844741630352144 2 64.467646365858656 21.36085200232376 2 29.250960214803548 1.4 2 49.692269207264154 1.4 2 67.951250668943146 1.4 2 37.364985591005848 19.153847694050764 2 45.556486036322525 15.112351784672491 2 62.196371623618653 3.5735299753703744 2 36.592808532604728 22.287718688423404 2 47.990010284454172 14.693822044464584 2 63.203135611903541 9.8061834820380867 2 36.131171066212701 1.4 2 45.358655049621063 1.4 2 59.168941685629832 14.280683015081703 2 30.449636585885667 7.2816619783436707 2 46.757698314734178 1.4 2 67.156940620413863 12.716659900330063 2 31.611350914117647 12.200001383903899 2 49.5861574566269 18.969372213258083 2 64.269717588441836 1.4 2 32.737944102756906 19.194808095606167 2 52.137324694919016 6.4264289132872134 2 60.714241469155844 16.717718449055905 2 33.753081160551304 4.9243385921058982 2 43.623915432999844 11.59586070190695 2 59.052237872498836 17.50154553783398 2 30.866420190051425 4.111620572088631 2 47.412262782757111 6.9049112735734663 2 65.581678719384584 6.6552289268129883 2 37.528369164739118 17.472234895684824 2 46.633390523303277 23.661894033417724 2 60.466878171889697 1.4 2 34.264758332930604 19.385773463553154 2 50.057331394100281 17.838192004222829 2 61.393459952498439 8.1901724144442021 2 31.223843667092609 1.4 2 43.687330860026044 7.4211190191012459 2 53.713244905787391 17.849764763992482 2 30.883956811194462 9.9963612671250957 2 48.019489392055625 1.4 2 64.256898944288409 9.7111069556348539 2 36.454770481898144 13.694252367168444 2 50.984065803806494 19.713769055074536 2 62.802566062849266 4.5593847633654807 2 31.707520748225175 15.489398368231415 2 49.28263314921962 9.8081118015640634 2 62.342162400152681 16.141667417451799 2 33.489886497018553 8.5654597942299979 2 44.748590239333254 6.2822633072695524 2 60.243127218165014 20.479608574480945 2 30.429716939680041 2.2060036763302286 2 49.439683874320124 2.8989142470281148 2 66.962476429086607 4.9977632828018228 2 36.225707174136424 14.809547691830865 2 46.861860230258102 11.470252566725197 2 61.134017630177297 1.4 2 31.213744620298801 24.500184122892747 2 48.199842266904085 11.614197872634914 2 61.456074125372609 10.986918080450533 2 35.106618918917789 1.4 2 42.024762800367341 1.4 2 58.52982822886527 13.449120139796511 2 29.757043629832211 7.9842946532671961 2 44.867450779575243 4.6351967384757486 2 65.560323100245256 9.8090405750879537 2 34.212566320709321 12.962024996913701 2 46.974819212200188 19.649824369331867 2 65.32302982761459 2.3317067079633493 2 30.633669654423038 16.204163356364049 2 51.903884207749364 10.733635936942536 2 60.509788654396019 11.903354333821598 2 34.643882761496428 5.291005212683495 2 46.004374927949556 10.451402489149098 2 58.816791349602397 15.478637997884547 2 32.749075762008481 7.1971918145056 2 49.945448185220364 6.4916533578991853 2 66.556064572764498 8.0402981351834164 2 38.160036187917576 25.724880234594146 2 42.946207529995775 18.74034920793633 2 59.770049779091629 3.8358236201789189 2 34.740611917498484 17.404928428292202 2 50.705821762262651 14.766692417814607 2 61.731008816434056 4.4196224118259186 2 32.417888499711687 2.7881190252051722 2 43.312710751799592 3.30575038140532 2 55.573197654810173 14.222657403622426 2 32.520958913351315 8.2031153909857206 2 48.858407396253646 4.0143506972871936 2 63.065418479793422 6.879395283553305 2 36.491151462265961 11.991184619032389 2 48.475317205112198 20.961965818329357 2 64.088224516497732 6.290860808731626 2 30.673322770300629 11.278844554138772 2 45.622888675935435 7.6748394136681295 2 61.089469697998226 19.465335922996115 2 33.313229038609265 11.862847480964875 2 47.085808531099801 3.3074313292104232 2 62.267106616668151 20.984366888276895 2 29.136781058765155 3.7147167183311818 2 50.300441926440435 1.4 2 66.554188460490863 3.770314764043702 2 36.067226093928674 20.449361610993346 2 46.235980880843798 13.949318472954273 2 63.418494010671814 2.7813314846276715 2 35.065171234348853 22.451210871606644 2 48.585033496792121 15.755588748506176 2 62.427661853562959 11.93111113307236 2 36.436315947174258 2.244152360641408 2 44.118596043286011 1.4 2 60.310143649832064 14.641082262590784 2 30.045429612939103 9.1276684942380992 2 46.515337624837692 2.0317775361108716 2 67.229023332041422 11.002272437616226 2 32.909001211563982 13.605489039891934 2 47.434602902292511 22.120709173469645 2 63.727785955062863 1.4 2 30.305649831196906 18.731169868274961 2 52.336577758516263 8.3766248180770742 2 61.525129476898059 14.405615720744096 2 31.956029043445863 5.5897590381338409 2 45.092605916380109 12.61823255609778 2 58.166211908494361 19.225733302855755 2 29.395400044273647 6.6374725829290586 2 46.466792421484428 5.3911700938386256 2 64.35560000692891 3.8534419055555804 2 40.149410149629723 18.477221318134525 2 45.589932497843584 19.856547505822995 2 59.244072532115624 1.4 2 33.539394686995152 22.569472696436854 2 48.228898450104388 18.191597955434585 2 60.635200060918692 7.3947111976540798 2 32.6833800745354 1.4 2 45.672253956812405 6.620507380288422 2 55.733657390449459 19.409598886886386 2 32.313312244334305 11.391450014348319 2 49.103342507932531 1.4 2 66.398736136513776 8.9863130910549707 2 38.063395938754823 12.582466839083207 2 50.587644351491797 21.789278952073563 2 61.044548887953241 5.1717154326665531 2 29.990572944531017 15.184801195687511 2 48.93699618112398 8.8930310276584343 2 63.043149061657545 19.727375549662789 2 34.478955968490652 10.732820570759928 2 43.980603088017958 8.4573327400759446 2 60.3572557998395 23.63873011535544 2 30.528953777030605 1.4 2 51.912717912003899 3.4327458572277583 2 66.377199486757732 2.7610138227561514 2 35.878311956323223 17.10755502641333 2 46.700790739780111 9.6006709351623662 2 62.549337550778745 1.4 2 31.99448520600345 22.45199295746491 2 46.259995085868347 12.63711027900851 2 62.205579159497006 10.206844173373337 2 33.822379579110077 1.4 2 41.481405501381687 2.7059149427975386 2 57.645161790137053 12.057908886166471 2 28.180570835400999 11.693959338284746 2 45.454557854282626 5.4686278695291319 2 68.01855602536844 9.8667060573928556 2 33.914864828229049 14.103214928509512 2 46.989674492077981 17.194353065247693 2 67.362810009647887 1.4 2 33.69407023981455 15.610534793069245 2 50.373841590518914 9.0384591991004335 2 62.465947390854481 13.830645605888694 2 32.39391456654571 6.4114683219388127 2 45.417434824472053 9.5561405210639538 2 58.383381290889425 16.561826753919526 2 31.580200871633661 4.7180258334813523 2 48.692860933902296 6.8245396814027917 2 64.748564598090113 7.2841468217584753 2 38.459220232726416 22.30689629827787 2 44.317595754099834 19.300135016083384 2 60.349106689353739 2.7447704483215931 2 31.9338369498304 14.252082811701813 2 49.869286243277287 12.15228227933015 2 59.435924167410128 7.36673644849503 2 31.932996781258737 3.6682900394759628 2 44.436684381626506 2.9551650251445492 2 55.036433403771497 16.916928455002424 2 31.513459955440666 7.4682645114339854 2 47.789230474938691 3.8319866921791648 2 62.191217874746201 7.6970712310856149 2 36.034967022527383 15.859320919925613 2 50.582022373842918 25.241573650426197 2 64.770040830235473 5.7209651362740424 2 29.435478566720587 13.041938631739033 2 46.714635122196128 7.7953374222401406 2 59.40611991489596 18.764388438474292 2 32.737908400975407 9.5353703444985385 2 45.376614764156592 2.4557957318781267 2 65.856352361945412 20.268555852762098 2 28.355229780757512 1.4 2 50.36225085385761 2.3486391868198755 2 66.806110713822761 1.4 2 37.290801701168412 20.7181847993613 2 46.807429036683587 15.046264006379676 2 61.147930822588833 3.37256039502391 2 37.257599202039216 23.855502137444674 2 48.437749999235137 13.494730307275979 2 63.026770181992838 11.103027827763546 2 37.431762822455589 1.4 2 46.016409341375578 1.4 2 57.840393847932077 14.721900696199752 2 30.306869986962841 6.2318427401059626 2 47.792568019381683 2.5185941255016897 2 66.132080272330697 13.466009493473674 2 31.749688972634491 10.729229956206899 2 48.269536602126749 19.527141516884164 2 64.874618958505678 1.4 2 33.886710081758423 18.200774924748526 2 51.935787967194372 7.4941692681811602 2 61.756996560557155 17.441303870393561 2 33.89231193301476 3.8543957042634989 2 42.394618303337047 10.547363581575182 2 57.176922526221936 16.866894289265041 2 30.211653482322685 3.5884505299995912 2 47.87126455772259 7.8062465575014537 2 64.966396660237848 4.708819503699921 2 36.449347680602941 18.256701175336662 2 45.267924297576613 25.238253615176387 2 59.863096108948923 1.4 2 32.706822493137231 17.790451867502387 2 49.840241723119846 16.654539225626344 2 60.763303569780931 8.9132479350979388 2 31.698128121939039 1.7435855266461056 2 42.945087113434909 6.833252227061112 2 52.508411675571388 18.861160375656905 2 29.927107706872835 10.257212316504157 2 47.431840792924902 1.4 2 63.983946353903249 8.5785095779002454 2 37.441701875520863 14.190947668986123 2 49.869906756855464 20.551037079540745 2 63.348374119568817 3.7030228855611109 2 </DataArray>
</Points>
<Cells>
<DataArray Name="connectivity" format="ascii" type="Int32">0</DataArray>
<DataArray Name="offsets" format="ascii" type="Int32">0</DataArray>
<DataArray Name="types" format="ascii" type="UInt8">1</DataArray>
</Cells>
<PointData>
<DataArray Name="Points" NumberOfComponents="3" format="ascii" type="Float32">0 0 0 30.756435444353517 14.39213151080558 2 48.023842529268855 9.5288153406959832 2 63.271096052992561 17.554340440711144 2 34.547848618683055 8.618417153699216 2 46.525639826437072 6.4707723288049825 2 60.905758592804844 21.994010643650771 2 29.893728470128966 1.4 2 49.760760768587438 3.8035842302811793 2 65.945263492269703 4.5556587372611519 2 37.146649016683043 16.338896802531291 2 45.740336903228993 11.491974581952796 2 61.351488633392364 2.1047337217377668 2 33.196640525334018 24.619484617478307 2 48.446230274249046 10.599311348933648 2 61.045801250260347 9.9238838884066869 2 34.471187986186976 1.4 2 43.385549586408573 1.4 2 57.443199829776468 13.336203005245583 2 28.863119513741189 9.7782672166243056 2 44.121026441918822 3.8234847799320542 2 66.842953053398446 9.9633542011935958 2 32.735778148500188 12.675278321908253 2 46.660270302206314 18.330091356010424 2 65.57637693263365 1.4 2 31.817981699337889 16.704509050708417 2 50.167255739220828 10.15453876111145 2 61.469123582924652 12.265282269910008 2 33.806613401666056 6.1796549062249513 2 44.729998299860007 10.406332372138225 2 59.827616622962154 15.928163670215955 2 31.299332930157338 6.4324885354621024 2 49.621582293276276 7.4072926945978299 2 65.536987210394443 7.9546099466487963 2 39.711126421040305 24.087638950324461 2 44.061087807502972 18.020399056945823 2 60.618964121715713 4.1709937231366148 2 34.584435114201135 16.2947789303111 2 49.646401831036982 15.343513788072865 2 60.521196007198284 5.9030881605249705 2 31.1873254339094 3.1169838720823635 2 43.387371823760674 4.5084816845723275 2 56.679887542916788 14.543594663522176 2 33.624742775906832 7.5009042612265686 2 48.518220418438638 3.1950800507096928 2 63.008196537927496 8.4402007754877744 2 35.580207253869084 12.937994481457116 2 49.177800542023704 22.857204305231782 2 63.175138657975204 5.6966848130131797 2 30.514813935844451 12.553644866097576 2 46.158751249929992 8.6627648695850521 2 62.228349190074063 18.628046283026489 2 33.226450584448664 10.654165134794399 2 46.780671263932462 4.3626329132358839 2 63.159390191847123 22.464015099281276 2 29.951294838961431 4.7267606829339366 2 50.995613173273824 1.4 2 67.318820357483446 3.306720014137154 2 34.679472515021345 20.782110691196682 2 47.289647236417366 13.597646758898438 2 62.351284207578225 2.7019488907548843 2 35.264983248045134 24.558692630017237 2 47.365648176054812 16.070858391258763 2 63.915978226153378 12.0386735642084 2 35.508377975868797 1.4 2 44.748887422083065 1.4 2 60.028538125973512 13.321909859497044 2 30.772404888730229 8.4150113259170389 2 46.168600884646537 3.311123841590458 2 67.734405081464516 11.828408447875228 2 31.301099609181104 13.318033522627582 2 46.409269831274237 21.094862330286553 2 63.129818236700856 1.4 2 31.426347439652517 19.450074824359568 2 51.259127446020287 8.4037344305522925 2 61.389797983011633 15.516275573977273 2 32.679766849784407 4.596469665942716 2 44.664414859753009 11.485152929478573 2 58.880213197009773 20.634380761330846 2 29.328753181758568 5.6702292381356827 2 47.413933567874082 5.8041344675805666 2 64.487469814329273 3.0077449368924429 2 38.895372655700861 19.427794912591882 2 44.646073797926846 21.056503974962709 2 58.630856776639611 1.4 2 33.293851493901848 20.672875086922947 2 48.591891514188696 17.035808074406944 2 61.276844748067013 6.6331599968376693 2 32.050004712835985 1.4 2 43.794690962158391 6.1797494806913313 2 55.048037687485362 18.251032244362527 2 31.82703648749316 9.6476762872833923 2 48.616985421166845 1.4 2 65.013353432631092 8.8245454119847118 2 37.149637605207495 12.78139610454437 2 51.316240345508334 23.276763621452716 2 62.136572936036458 5.4894678116484288 2 29.095368715827171 15.88421900687095 2 48.790700434057321 7.9726909841239237 2 64.433662090034119 19.707775754867118 2 34.707783926967245 9.777702147112624 2 44.678335367936896 7.3973898235205997 2 62.438540620576731 24.212526581099691 2 29.649795986332126 2.9463922280316828 2 50.351459221771727 4.6680617132003706 2 65.48485085454405 3.5000449118321151 2 35.51132794703674 18.989773826809031 2 47.327941035496401 10.501081612846708 2 61.902487274110797 1.4 2 31.859424883589011 20.763415042446205 2 47.432337283609826 12.445511423908671 2 62.196152067904706 9.1072135440685269 2 33.213812784585471 1.4 2 42.715385187356347 1.4 2 58.717553653283844 12.252609802174101 2 29.288573772370196 10.980032879546503 2 45.875531958373877 4.2938525354902248 2 67.674141461423787 8.8372575310091221 2 35.046948601861317 13.904876516471637 2 45.981414777903872 16.379525242223011 2 66.209778550732423 1.4 2 33.076101758061213 16.566372800676874 2 50.176954600508523 8.0877838559003035 2 61.23542746775852 13.301377299120722 2 33.068029609722053 5.6214724276387722 2 44.964154659295417 8.6313725792767766 2 56.929046380723655 15.701784873782257 2 30.700905635941041 5.4227053512535743 2 48.465041504584747 5.9934647949653916 2 63.852483900000635 7.5092293071728236 2 38.754478807290475 20.735537826744586 2 45.492669076912371 18.149363568210934 2 59.525046239773005 2.940655764501479 2 32.891567063908042 14.935752274766914 2 49.934940469817604 13.323902758218235 2 59.757251402569615 6.4350891501273839 2 32.886768984055138 3.6672973224929581 2 43.7633011743821 2.1053736055129391 2 55.657587206903102 15.719519514364231 2 31.625868957087043 8.6710731502088514 2 47.78860784231189 4.9396039843527078 2 62.141156841686538 6.5292999251491146 2 34.970505813094199 15.045945145703465 2 48.447022034507093 24.609213196850053 2 63.855060725979932 4.9163653631007547 2 29.699723466848063 13.934060302117425 2 47.417210362111462 8.7302013284596907 2 60.436220670765749 18.032169593280059 2 33.714848603503853 9.6849596386318186 2 45.192684518666567 3.5844741630352144 2 64.467646365858656 21.36085200232376 2 29.250960214803548 1.4 2 49.692269207264154 1.4 2 67.951250668943146 1.4 2 37.364985591005848 19.153847694050764 2 45.556486036322525 15.112351784672491 2 62.196371623618653 3.5735299753703744 2 36.592808532604728 22.287718688423404 2 47.990010284454172 14.693822044464584 2 63.203135611903541 9.8061834820380867 2 36.131171066212701 1.4 2 45.358655049621063 1.4 2 59.168941685629832 14.280683015081703 2 30.449636585885667 7.2816619783436707 2 46.757698314734178 1.4 2 67.156940620413863 12.716659900330063 2 31.611350914117647 12.200001383903899 2 49.5861574566269 18.969372213258083 2 64.269717588441836 1.4 2 32.737944102756906 19.194808095606167 2 52.137324694919016 6.4264289132872134 2 60.714241469155844 16.717718449055905 2 33.753081160551304 4.9243385921058982 2 43.623915432999844 11.59586070190695 2 59.052237872498836 17.50154553783398 2 30.866420190051425 4.111620572088631 2 47.412262782757111 6.9049112735734663 2 65.581678719384584 6.6552289268129883 2 37.528369164739118 17.472234895684824 2 46.633390523303277 23.661894033417724 2 60.466878171889697 1.4 2 34.264758332930604 19.385773463553154 2 50.057331394100281 17.838192004222829 2 61.393459952498439 8.1901724144442021 2 31.223843667092609 1.4 2 43.687330860026044 7.4211190191012459 2 53.713244905787391 17.849764763992482 2 30.883956811194462 9.9963612671250957 2 48.019489392055625 1.4 2 64.256898944288409 9.7111069556348539 2 36.454770481898144 13.694252367168444 2 50.984065803806494 19.713769055074536 2 62.802566062849266 4.5593847633654807 2 31.707520748225175 15.489398368231415 2 49.28263314921962 9.8081118015640634 2 62.342162400152681 16.141667417451799 2 33.489886497018553 8.5654597942299979 2 44.748590239333254 6.2822633072695524 2 60.243127218165014 20.479608574480945 2 30.429716939680041 2.2060036763302286 2 49.439683874320124 2.8989142470281148 2 66.962476429086607 4.9977632828018228 2 36.225707174136424 14.809547691830865 2 46.861860230258102 11.470252566725197 2 61.134017630177297 1.4 2 31.213744620298801 24.500184122892747 2 48.199842266904085 11.614197872634914 2 61.456074125372609 10.986918080450533 2 35.106618918917789 1.4 2 42.024762800367341 1.4 2 58.52982822886527 13.449120139796511 2 29.757043629832211 7.9842946532671961 2 44.867450779575243 4.6351967384757486 2 65.560323100245256 9.8090405750879537 2 34.212566320709321 12.962024996913701 2 46.974819212200188 19.649824369331867 2 65.32302982761459 2.3317067079633493 2 30.633669654423038 16.204163356364049 2 51.903884207749364 10.733635936942536 2 60.509788654396019 11.903354333821598 2 34.643882761496428 5.291005212683495 2 46.004374927949556 10.451402489149098 2 58.816791349602397 15.478637997884547 2 32.749075762008481 7.1971918145056 2 49.945448185220364 6.4916533578991853 2 66.556064572764498 8.0402981351834164 2 38.160036187917576 25.724880234594146 2 42.946207529995775 18.74034920793633 2 59.770049779091629 3.8358236201789189 2 34.740611917498484 17.404928428292202 2 50.705821762262651 14.766692417814607 2 61.731008816434056 4.4196224118259186 2 32.417888499711687 2.7881190252051722 2 43.312710751799592 3.30575038140532 2 55.573197654810173 14.222657403622426 2 32.520958913351315 8.2031153909857206 2 48.858407396253646 4.0143506972871936 2 63.065418479793422 6.879395283553305 2 36.491151462265961 11.991184619032389 2 48.475317205112198 20.961965818329357 2 64.088224516497732 6.290860808731626 2 30.673322770300629 11.278844554138772 2 45.622888675935435 7.6748394136681295 2 61.089469697998226 19.465335922996115 2 33.313229038609265 11.862847480964875 2 47.085808531099801 3.3074313292104232 2 62.267106616668151 20.984366888276895 2 29.136781058765155 3.7147167183311818 2 50.300441926440435 1.4 2 66.554188460490863 3.770314764043702 2 36.067226093928674 20.449361610993346 2 46.235980880843798 13.949318472954273 2 63.418494010671814 2.7813314846276715 2 35.065171234348853 22.451210871606644 2 48.585033496792121 15.755588748506176 2 62.427661853562959 11.93111113307236 2 36.436315947174258 2.244152360641408 2 44.118596043286011 1.4 2 60.310143649832064 14.641082262590784 2 30.045429612939103 9.1276684942380992 2 46.515337624837692 2.0317775361108716 2 67.229023332041422 11.002272437616226 2 32.909001211563982 13.605489039891934 2 47.434602902292511 22.120709173469645 2 63.727785955062863 1.4 2 30.305649831196906 18.731169868274961 2 52.336577758516263 8.3766248180770742 2 61.525129476898059 14.405615720744096 2 31.956029043445863 5.5897590381338409 2 45.092605916380109 12.61823255609778 2 58.166211908494361 19.225733302855755 2 29.395400044273647 6.6374725829290586 2 46.466792421484428 5.3911700938386256 2 64.35560000692891 3.8534419055555804 2 40.149410149629723 18.477221318134525 2 45.589932497843584 19.856547505822995 2 59.244072532115624 1.4 2 33.539394686995152 22.569472696436854 2 48.228898450104388 18.191597955434585 2 60.635200060918692 7.3947111976540798 2 32.6833800745354 1.4 2 45.672253956812405 6.620507380288422 2 55.733657390449459 19.409598886886386 2 32.313312244334305 11.391450014348319 2 49.103342507932531 1.4 2 66.398736136513776 8.9863130910549707 2 38.063395938754823 12.582466839083207 2 50.587644351491797 21.789278952073563 2 61.044548887953241 5.1717154326665531 2 29.990572944531017 15.184801195687511 2 48.93699618112398 8.8930310276584343 2 63.043149061657545 19.727375549662789 2 34.478955968490652 10.732820570759928 2 43.980603088017958 8.4573327400759446 2 60.3572557998395 23.63873011535544 2 30.528953777030605 1.4 2 51.912717912003899 3.4327458572277583 2 66.377199486757732 2.7610138227561514 2 35.878311956323223 17.10755502641333 2 46.700790739780111 9.6006709351623662 2 62.549337550778745 1.4 2 31.99448520600345 22.45199295746491 2 46.259995085868347 12.63711027900851 2 62.205579159497006 10.206844173373337 2 33.822379579110077 1.4 2 41.481405501381687 2.7059149427975386 2 57.645161790137053 12.057908886166471 2 28.180570835400999 11.693959338284746 2 45.454557854282626 5.4686278695291319 2 68.01855602536844 9.8667060573928556 2 33.914864828229049 14.103214928509512 2 46.989674492077981 17.194353065247693 2 67.362810009647887 1.4 2 33.69407023981455 15.610534793069245 2 50.373841590518914 9.0384591991004335 2 62.465947390854481 13.830645605888694 2 32.39391456654571 6.4114683219388127 2 45.417434824472053 9.5561405210639538 2 58.383381290889425 16.561826753919526 2 31.580200871633661 4.7180258334813523 2 48.692860933902296 6.8245396814027917 2 64.748564598090113 7.2841468217584753 2 38.459220232726416 22.30689629827787 2 44.317595754099834 19.300135016083384 2 60.349106689353739 2.7447704483215931 2 31.9338369498304 14.252082811701813 2 49.869286243277287 12.15228227933015 2 59.435924167410128 7.36673644849503 2 31.932996781258737 3.6682900394759628 2 44.436684381626506 2.9551650251445492 2 55.036433403771497 16.916928455002424 2 31.513459955440666 7.4682645114339854 2 47.789230474938691 3.8319866921791648 2 62.191217874746201 7.6970712310856149 2 36.034967022527383 15.859320919925613 2 50.582022373842918 25.241573650426197 2 64.770040830235473 5.7209651362740424 2 29.435478566720587 13.041938631739033 2 46.714635122196128 7.7953374222401406 2 59.40611991489596 18.764388438474292 2 32.737908400975407 9.5353703444985385 2 45.376614764156592 2.4557957318781267 2 65.856352361945412 20.268555852762098 2 28.355229780757512 1.4 2 50.36225085385761 2.3486391868198755 2 66.806110713822761 1.4 2 37.290801701168412 20.7181847993613 2 46.807429036683587 15.046264006379676 2 61.147930822588833 3.37256039502391 2 37.257599202039216 23.855502137444674 2 48.437749999235137 13.494730307275979 2 63.026770181992838 11.103027827763546 2 37.431762822455589 1.4 2 46.016409341375578 1.4 2 57.840393847932077 14.721900696199752 2 30.306869986962841 6.2318427401059626 2 47.792568019381683 2.5185941255016897 2 66.132080272330697 13.466009493473674 2 31.749688972634491 10.729229956206899 2 48.269536602126749 19.527141516884164 2 64.874618958505678 1.4 2 33.886710081758423 18.200774924748526 2 51.935787967194372 7.4941692681811602 2 61.756996560557155 17.441303870393561 2 33.89231193301476 3.8543957042634989 2 42.394618303337047 10.547363581575182 2 57.176922526221936 16.866894289265041 2 30.211653482322685 3.5884505299995912 2 47.87126455772259 7.8062465575014537 2 64.966396660237848 4.708819503699921 2 36.449347680602941 18.256701175336662 2 45.267924297576613 25.238253615176387 2 59.863096108948923 1.4 2 32.706822493137231 17.790451867502387 2 49.840241723119846 16.654539225626344 2 60.763303569780931 8.9132479350979388 2 31.698128121939039 1.7435855266461056 2 42.945087113434909 6.833252227061112 2 52.508411675571388 18.861160375656905 2 29.927107706872835 10.257212316504157 2 47.431840792924902 1.4 2 63.983946353903249 8.5785095779002454 2 37.441701875520863 14.190947668986123 2 49.869906756855464 20.551037079540745 2 63.348374119568817 3.7030228855611109 2 </DataArray>