<?xml version="1.0" ?>
<VTKFile byte_order="LittleEndian" type="UnstructuredGrid" version="0.1">
<UnstructuredGrid>
<Piece NumberOfCells="0" NumberOfPoints="606">
<Points>
<DataArray NumberOfComponents="3" format="ascii" type="Float32">24.320722048239993 9.4459331463911003 2 39.652879594366929 20.173588429754794 2 52.36983593088322 18.562484872205754 2 74.793757231125014 21.750256972788385 2 75.21439479822098 9.9200242706178017 2 48.373647846241873 7.37593139812292 2 57.69531921155874 14.945451321033088 2 74.411763199377063 14.93674080434875 2 87.104593692542281 16.76915518330291 2 26.310545534886391 6.7796925703183675 2 43.413147827904325 4.6890079197317434 2 51.983569948789217 7.6119417572437289 2 65.672970860204998 14.873928244799707 2 80.035948914987131 15.11560382946252 2 44.654044074484858 1.6 2 60.72560949238315 15.730082226315421 2 73.851985982114456 1.6 2 84.051915947241497 1.6 2 19.549234643218895 5.3350532694073918 2 41.587377227285685 23.597214805594845 2 53.201763449041458 8.7038228503960298 2 69.689847585338043 19.174725825193526 2 82.104123773591084 9.5768103600393832 2 29.792281204042066 17.935470714803046 2 50.663638574524903 3.5769663347017153 2 55.467599957986558 17.872153719390656 2 70.760190388614888 6.5040490997901195 2 88.81311285136654 6.5075087705368624 2 29.621798211143659 5.0133059925863392 2 38.153461271198275 8.467720566429529 2 57.720434822330347 1.6 2 70.719556815379121 10.883257669137807 2 89.038616089154488 17.683619544759789 2 11.261309928892242 13.758352006194695 2 45.107093240308181 10.907731218894696 2 58.12404140127056 8.2843825955595864 2 76.153229661842587 1.6 2 84.059233578230021 4.2225106373802399 2 22.383813466729606 11.908909853018498 2 42.093223869226073 13.709237599997726 2 49.788175779104698 10.976089508150109 2 77.534044537942606 14.183234148425417 2 76.923952730866674 6.4503440074245093 2 7.4558445174868924 5.8042576743571015 2 19.345370237643447 10.173934279168311 2 49.910434685581372 1.6 2 61.983082079673032 24.04336423497363 2 74.147931187386632 3.5347402840600215 2 88.004723651719416 9.5231868898151752 2 31.599175547051775 17.583124378028312 2 41.965924671721368 10.193989946520393 2 53.288410664442857 1.6 2 63.781995577222169 22.798618526480123 2 84.91076150477744 15.483141286686724 2 43.641105981593185 6.7268527099775808 2 59.930969160403144 10.162591643189472 2 71.594203995096407 3.9457560950582784 2 82.423134722209397 3.9058141864644353 2 21.991540204159257 1.6 2 47.625703730624572 21.152832085067338 2 52.713477118722984 15.102380850202657 2 72.321665944858154 23.485988983244972 2 78.922733572964944 12.613897502341507 2 1.6 5.0000894901490858 2 20.519168993943193 13.622028338154255 2 49.117765866876482 9.927190687869345 2 49.457439826893008 21.092178649373079 2 69.061953352157829 3.3884527215143985 2 89.216511530089107 1.6 2 26.786274942108662 3.1800159659233249 2 37.008933094836976 18.323131437899203 2 54.107325076813538 1.6 2 67.426574013400042 9.0082103384732335 2 82.066583254075226 23.345363054208836 2 44.923628891064872 13.391774720160127 2 55.657281888559965 12.041305500898744 2 79.587803095471401 7.6246988849152508 2 86.772958774860172 6.3505282705830801 2 19.087830766905608 7.7701582562225457 2 43.915457589108371 16.312112501928809 2 47.980649799310612 17.179595718202624 2 77.073688407005093 21.217719883912778 2 73.764495401888695 10.73310010510732 2 47.619735209309923 3.073681528143136 2 56.921637635585917 16.263400295810833 2 71.215368376394864 13.778962145438198 2 89.167102030400827 13.793399018778461 2 23.484473951973079 5.4471844958631808 2 41.148154804731917 2.4388391445705584 2 55.731197207520744 7.1552093189790984 2 66.308574572578394 16.36336702950031 2 78.892929656357296 20.40643375806593 2 46.483983155484729 2.6655002172163815 2 59.259232315394698 16.532558458494922 2 75.424915775092487 3.7035282037688746 2 87.320979311243633 1.6 2 45.046702028320553 18.085587536838304 2 51.735163331404365 8.9048742833266967 2 68.654651654390776 13.832067483085964 2 83.571116866916753 9.1552284405088766 2 24.588157043313238 15.387894961457189 2 51.125951339300258 6.7037091220577043 2 54.912354718815564 22.858576957029761 2 69.31763485174433 8.7976711234758529 2 86.734207389883039 4.817308515649656 2 29.888046791252052 1.6 2 39.81667104791449 12.044656215711699 2 57.73189672843251 4.4303665423823873 2 72.971430535555982 9.1039949836307841 2 87.350984929976377 21.948430457189659 2 15.000752547306602 11.039383373676298 2 45.715124787723823 8.1773273847276631 2 60.423293650020945 7.2141609347014182 2 77.345058535096555 4.7426829008402622 2 82.462914797828034 6.5917347760012905 2 41.580346468729118 14.997797439482827 2 50.979733215986414 15.922037988251988 2 77.639017079564084 12.628593326892409 2 79.689533007568656 6.2580156247798957 2 18.720350661981573 13.529572693231829 2 48.350661588284609 1.6 2 58.235897505713083 21.34519443471066 2 74.734329035745787 6.7812645884903677 2 91.215791978699613 11.563900941164238 2 28.219768881972428 13.929380515203196 2 39.851568400329349 6.7159633699587031 2 52.500964621175143 3.6457230435698635 2 67.67857474063959 24.110243037384713 2 81.814127872145264 12.57957403096885 2 8.607681208766591 8.361904628357097 2 45.986031690953936 5.1685025042340937 2 57.086656865136803 9.2368130738834981 2 69.660356203343994 1.6 2 79.314550390978297 1.6 2 46.776414620918189 15.794835258463756 2 52.605658093914734 12.713737534724681 2 73.120493460999612 18.801013351812063 2 78.280607523435776 9.2046753579371696 2 1.6 10.424814198472328 2 23.689692634935106 13.712850676417435 2 46.726592329008398 10.971554053128449 2 52.426182222131963 23.965349246001928 2 67.519028958644043 1.6 2 87.994340634272618 4.0614317474013886 2 23.681895180983059 1.6 2 37.532120870884356 14.948266958314536 2 53.908577974209898 3.905750570185373 2 66.837758605902181 11.428240862004193 2 80.496737127373976 19.933383814563701 2 47.391293773760673 14.562990885736772 2 55.919710935217722 8.5723626686236063 2 81.571724570763237 5.8224419976917074 2 84.750155311076327 13.343221927820311 2 25.390309132560137 10.877019368753075 2 37.156493632058634 21.257654098029512 2 53.865657192236576 18.744693767486083 2 75.945587235942909 19.682894671245155 2 75.94340266568328 8.857462223422683 2 47.488451554672039 6.5716665878924401 2 57.799798869809585 12.29932770887018 2 74.281257459776029 17.491607221473767 2 86.50178774847484 15.314071798951016 2 25.893548717598019 8.9765454530382982 2 43.727814042581983 3.330547266828733 2 54.409398842036083 7.1257304384893789 2 64.177834607013367 15.617514437908948 2 81.183454209868401 16.848053026835405 2 42.896216286896255 1.6 2 58.742344902011624 13.928659771283394 2 72.902305534585111 1.6 2 85.803716318160113 1.6 2 23.473815929192344 7.3372938057536023 2 43.965361780639796 23.799160435713876 2 53.474929628834651 11.31787160729518 2 70.273256970613659 16.235123159702802 2 79.449165738086037 9.9541170488617308 2 27.46332699162063 18.009147429051627 2 49.993367047208899 6.2455183614647209 2 54.34807960043878 20.753015919645243 2 72.953120401289837 6.6932637590913382 2 87.824008536009288 7.369925363740415 2 30.873571898921526 3.2849056124100389 2 39.386530585515331 9.2412004283654916 2 57.022988772692365 1.6 2 70.361371141838177 9.5438613304465374 2 90.709731765358086 21.65028087062668 2 43.862127029377334 8.9856939025112794 2 58.668295568782831 6.328768454438924 2 77.728201294306402 1.6 2 83.629660173732503 5.8014398687383268 2 20.666201970435829 7.6364499186831774 2 42.865343284362019 11.211407089103284 2 48.009689498461434 12.869755920114425 2 75.806012646753928 15.185402759128307 2 76.757630600153334 7.9156864876930566 2 49.662200746692392 3.076024379488115 2 59.666609249003493 20.193041758595204 2 75.515342792990978 5.6494011675010372 2 86.34960359127345 9.6819136567724904 2 29.937396816368516 14.874998644297643 2 41.114221456915679 8.2511868448441632 2 51.621865469480809 1.6 2 67.642416743827468 19.519401139980545 2 82.825514919105999 15.92475209958681 2 42.955046938684468 7.8984647766560556 2 61.078397549403242 11.18883703600379 2 72.287227499885958 4.9497781015062916 2 83.148111432129951 1.6 2 45.869850931711682 22.242210194662952 2 54.650387750823178 14.125409545546702 2 71.278078376295397 21.113407903755082 2 80.508885440503903 12.09411569754409 2 5.140425854961383 5.6827402670541982 2 21.008408170613517 18.578012769836342 2 47.691901061456107 9.8153842299979495 2 52.516466780131751 20.315474734491477 2 70.407416085408812 4.3843737183765663 2 91.238280616675524 1.6 2 29.024143740150926 3.8310857043252948 2 35.536898472837976 19.638277491532392 2 55.538555238242381 1.6 2 68.217033251429186 11.455854238939528 2 84.56889102481864 22.458578960400711 2 43.550087580610636 13.63190766044008 2 57.097447065987581 13.393994851491014 2 80.74389640610309 6.961447290869998 2 85.055521860899375 9.1702230107095204 2 42.417666469804807 16.977558001315458 2 49.309221607143243 19.28673946198986 2 74.555384402906427 24.361820705828933 2 72.263188047499114 13.073126371827184 2 16.731970212755424 10.2008919969477 2 48.460230252410057 4.7868573581898035 2 55.496065954942971 16.10811608023878 2 73.407044214391348 16.106737042423763 2 87.408001372022923 13.179864486236628 2 23.364261815695667 3.2942954998143135 2 40.812505809150657 1.6 2 56.168015606862873 4.5862744553159596 2 67.886222469211333 16.496754879656073 2 78.04399871324334 17.333968168312399 2 45.633028664339371 1.6 2 61.502421573691542 17.229404032613044 2 75.308757195663304 1.6 2 88.225754389408891 1.6 2 42.51332380753054 19.554890420612249 2 51.124180406566644 10.413929713274603 2 69.548028292482257 11.622092007819072 2 84.518850071564941 11.788686304495831 2 1.6 1.6 2 23.601908767530947 19.828596444575599 2 49.621326116844024 7.494643702151083 2 57.904529505941824 23.589712547262526 2 71.037473003693165 7.6104955911432617 2 85.590059140488719 3.5625274966976894 2 27.684568339749774 1.6 2 38.82750030954589 13.93445844194615 2 57.421532020246318 5.5858756416274407 2 72.413401260771664 11.083258
[...]
<PointData>
<DataArray Name="Points" NumberOfComponents="3" format="ascii" type="Float32">24.320722048239993 9.4459331463911003 2 39.652879594366929 20.173588429754794 2 52.36983593088322 18.562484872205754 2 74.793757231125014 21.750256972788385 2 75.21439479822098 9.9200242706178017 2 48.373647846241873 7.37593139812292 2 57.69531921155874 14.945451321033088 2 74.411763199377063 14.93674080434875 2 87.104593692542281 16.76915518330291 2 26.310545534886391 6.7796925703183675 2 43.413147827904325 4.6890079197317434 2 51.983569948789217 7.6119417572437289 2 65.672970860204998 14.873928244799707 2 80.035948914987131 15.11560382946252 2 44.654044074484858 1.6 2 60.72560949238315 15.730082226315421 2 73.851985982114456 1.6 2 84.051915947241497 1.6 2 19.549234643218895 5.3350532694073918 2 41.587377227285685 23.597214805594845 2 53.201763449041458 8.7038228503960298 2 69.689847585338043 19.174725825193526 2 82.104123773591084 9.5768103600393832 2 29.792281204042066 17.935470714803046 2 50.663638574524903 3.5769663347017153 2 55.467599957986558 17.872153719390656 2 70.760190388614888 6.5040490997901195 2 88.81311285136654 6.5075087705368624 2 29.621798211143659 5.0133059925863392 2 38.153461271198275 8.467720566429529 2 57.720434822330347 1.6 2 70.719556815379121 10.883257669137807 2 89.038616089154488 17.683619544759789 2 11.261309928892242 13.758352006194695 2 45.107093240308181 10.907731218894696 2 58.12404140127056 8.2843825955595864 2 76.153229661842587 1.6 2 84.059233578230021 4.2225106373802399 2 22.383813466729606 11.908909853018498 2 42.093223869226073 13.709237599997726 2 49.788175779104698 10.976089508150109 2 77.534044537942606 14.183234148425417 2 76.923952730866674 6.4503440074245093 2 7.4558445174868924 5.8042576743571015 2 19.345370237643447 10.173934279168311 2 49.910434685581372 1.6 2 61.983082079673032 24.04336423497363 2 74.147931187386632 3.5347402840600215 2 88.004723651719416 9.5231868898151752 2 31.599175547051775 17.583124378028312 2 41.965924671721368 10.193989946520393 2 53.288410664442857 1.6 2 63.781995577222169 22.798618526480123 2 84.91076150477744 15.483141286686724 2 43.641105981593185 6.7268527099775808 2 59.930969160403144 10.162591643189472 2 71.594203995096407 3.9457560950582784 2 82.423134722209397 3.9058141864644353 2 21.991540204159257 1.6 2 47.625703730624572 21.152832085067338 2 52.713477118722984 15.102380850202657 2 72.321665944858154 23.485988983244972 2 78.922733572964944 12.613897502341507 2 1.6 5.0000894901490858 2 20.519168993943193 13.622028338154255 2 49.117765866876482 9.927190687869345 2 49.457439826893008 21.092178649373079 2 69.061953352157829 3.3884527215143985 2 89.216511530089107 1.6 2 26.786274942108662 3.1800159659233249 2 37.008933094836976 18.323131437899203 2 54.107325076813538 1.6 2 67.426574013400042 9.0082103384732335 2 82.066583254075226 23.345363054208836 2 44.923628891064872 13.391774720160127 2 55.657281888559965 12.041305500898744 2 79.587803095471401 7.6246988849152508 2 86.772958774860172 6.3505282705830801 2 19.087830766905608 7.7701582562225457 2 43.915457589108371 16.312112501928809 2 47.980649799310612 17.179595718202624 2 77.073688407005093 21.217719883912778 2 73.764495401888695 10.73310010510732 2 47.619735209309923 3.073681528143136 2 56.921637635585917 16.263400295810833 2 71.215368376394864 13.778962145438198 2 89.167102030400827 13.793399018778461 2 23.484473951973079 5.4471844958631808 2 41.148154804731917 2.4388391445705584 2 55.731197207520744 7.1552093189790984 2 66.308574572578394 16.36336702950031 2 78.892929656357296 20.40643375806593 2 46.483983155484729 2.6655002172163815 2 59.259232315394698 16.532558458494922 2 75.424915775092487 3.7035282037688746 2 87.320979311243633 1.6 2 45.046702028320553 18.085587536838304 2 51.735163331404365 8.9048742833266967 2 68.654651654390776 13.832067483085964 2 83.571116866916753 9.1552284405088766 2 24.588157043313238 15.387894961457189 2 51.125951339300258 6.7037091220577043 2 54.912354718815564 22.858576957029761 2 69.31763485174433 8.7976711234758529 2 86.734207389883039 4.817308515649656 2 29.888046791252052 1.6 2 39.81667104791449 12.044656215711699 2 57.73189672843251 4.4303665423823873 2 72.971430535555982 9.1039949836307841 2 87.350984929976377 21.948430457189659 2 15.000752547306602 11.039383373676298 2 45.715124787723823 8.1773273847276631 2 60.423293650020945 7.2141609347014182 2 77.345058535096555 4.7426829008402622 2 82.462914797828034 6.5917347760012905 2 41.580346468729118 14.997797439482827 2 50.979733215986414 15.922037988251988 2 77.639017079564084 12.628593326892409 2 79.689533007568656 6.2580156247798957 2 18.720350661981573 13.529572693231829 2 48.350661588284609 1.6 2 58.235897505713083 21.34519443471066 2 74.734329035745787 6.7812645884903677 2 91.215791978699613 11.563900941164238 2 28.219768881972428 13.929380515203196 2 39.851568400329349 6.7159633699587031 2 52.500964621175143 3.6457230435698635 2 67.67857474063959 24.110243037384713 2 81.814127872145264 12.57957403096885 2 8.607681208766591 8.361904628357097 2 45.986031690953936 5.1685025042340937 2 57.086656865136803 9.2368130738834981 2 69.660356203343994 1.6 2 79.314550390978297 1.6 2 46.776414620918189 15.794835258463756 2 52.605658093914734 12.713737534724681 2 73.120493460999612 18.801013351812063 2 78.280607523435776 9.2046753579371696 2 1.6 10.424814198472328 2 23.689692634935106 13.712850676417435 2 46.726592329008398 10.971554053128449 2 52.426182222131963 23.965349246001928 2 67.519028958644043 1.6 2 87.994340634272618 4.0614317474013886 2 23.681895180983059 1.6 2 37.532120870884356 14.948266958314536 2 53.908577974209898 3.905750570185373 2 66.837758605902181 11.428240862004193 2 80.496737127373976 19.933383814563701 2 47.391293773760673 14.562990885736772 2 55.919710935217722 8.5723626686236063 2 81.571724570763237 5.8224419976917074 2 84.750155311076327 13.343221927820311 2 25.390309132560137 10.877019368753075 2 37.156493632058634 21.257654098029512 2 53.865657192236576 18.744693767486083 2 75.945587235942909 19.682894671245155 2 75.94340266568328 8.857462223422683 2 47.488451554672039 6.5716665878924401 2 57.799798869809585 12.29932770887018 2 74.281257459776029 17.491607221473767 2 86.50178774847484 15.314071798951016 2 25.893548717598019 8.9765454530382982 2 43.727814042581983 3.330547266828733 2 54.409398842036083 7.1257304384893789 2 64.177834607013367 15.617514437908948 2 81.183454209868401 16.848053026835405 2 42.896216286896255 1.6 2 58.742344902011624 13.928659771283394 2 72.902305534585111 1.6 2 85.803716318160113 1.6 2 23.473815929192344 7.3372938057536023 2 43.965361780639796 23.799160435713876 2 53.474929628834651 11.31787160729518 2 70.273256970613659 16.235123159702802 2 79.449165738086037 9.9541170488617308 2 27.46332699162063 18.009147429051627 2 49.993367047208899 6.2455183614647209 2 54.34807960043878 20.753015919645243 2 72.953120401289837 6.6932637590913382 2 87.824008536009288 7.369925363740415 2 30.873571898921526 3.2849056124100389 2 39.386530585515331 9.2412004283654916 2 57.022988772692365 1.6 2 70.361371141838177 9.5438613304465374 2 90.709731765358086 21.65028087062668 2 43.862127029377334 8.9856939025112794 2 58.668295568782831 6.328768454438924 2 77.728201294306402 1.6 2 83.629660173732503 5.8014398687383268 2 20.666201970435829 7.6364499186831774 2 42.865343284362019 11.211407089103284 2 48.009689498461434 12.869755920114425 2 75.806012646753928 15.185402759128307 2 76.757630600153334 7.9156864876930566 2 49.662200746692392 3.076024379488115 2 59.666609249003493 20.193041758595204 2 75.515342792990978 5.6494011675010372 2 86.34960359127345 9.6819136567724904 2 29.937396816368516 14.874998644297643 2 41.114221456915679 8.2511868448441632 2 51.621865469480809 1.6 2 67.642416743827468 19.519401139980545 2 82.825514919105999 15.92475209958681 2 42.955046938684468 7.8984647766560556 2 61.078397549403242 11.18883703600379 2 72.287227499885958 4.9497781015062916 2 83.148111432129951 1.6 2 45.869850931711682 22.242210194662952 2 54.650387750823178 14.125409545546702 2 71.278078376295397 21.113407903755082 2 80.508885440503903 12.09411569754409 2 5.140425854961383 5.6827402670541982 2 21.008408170613517 18.578012769836342 2 47.691901061456107 9.8153842299979495 2 52.516466780131751 20.315474734491477 2 70.407416085408812 4.3843737183765663 2 91.238280616675524 1.6 2 29.024143740150926 3.8310857043252948 2 35.536898472837976 19.638277491532392 2 55.538555238242381 1.6 2 68.217033251429186 11.455854238939528 2 84.56889102481864 22.458578960400711 2 43.550087580610636 13.63190766044008 2 57.097447065987581 13.393994851491014 2 80.74389640610309 6.961447290869998 2 85.055521860899375 9.1702230107095204 2 42.417666469804807 16.977558001315458 2 49.309221607143243 19.28673946198986 2 74.555384402906427 24.361820705828933 2 72.263188047499114 13.073126371827184 2 16.731970212755424 10.2008919969477 2 48.460230252410057 4.7868573581898035 2 55.496065954942971 16.10811608023878 2 73.407044214391348 16.106737042423763 2 87.408001372022923 13.179864486236628 2 23.364261815695667 3.2942954998143135 2 40.812505809150657 1.6 2 56.168015606862873 4.5862744553159596 2 67.886222469211333 16.496754879656073 2 78.04399871324334 17.333968168312399 2 45.633028664339371 1.6 2 61.502421573691542 17.229404032613044 2 75.308757195663304 1.6 2 88.225754389408891 1.6 2 42.51332380753054 19.554890420612249 2 51.124180406566644 10.413929713274603 2 69.548028292482257 11.622092007819072 2 84.518850071564941 11.788686304495831 2 1.6 1.6 2 23.601908767530947 19.828596444575599 2 49.621326116844024 7.494643702151083 2 57.904529505941824 23.589712547262526 2 71.037473003693165 7.6104955911432617 2 85.590059140488719 3.5625274966976894 2 27.684568339749774 1.6 2 38.82750030954589 13.93445844194615 2 57.421532020246318 5.5858756416274407 2 72.413401260771664 11.083258825532486 2 84.363649188600064 19.027522247247163 2 14.567110916269332 15.478033313283319 2 47.401211586628349 8.597799171243441 2 59.997477415908122 8.7306313362604833 2 76.92616171288995 3.5055789127624788 2 83.74853420048683 7.1869156391382498 2 39.725955840848435 17.439788147419591 2 49.959572097801328 13.386052552029522 2 76.155517415640446 13.829041888422907 2 79.459319779134447 3.9686905239896531 2 4.1028325927307252 3.6529931353632525 2 17.81554561804267 18.014770588123689 2 47.520714634250808 1.6 2 58.81004825831684 18.753145937616839 2 73.677754759405516 7.8065965595280034 2 88.845658424302812 10.545165900670835 2 26.936371592666255 10.220633183715149 2 38.387523821034243 5.4915228065326405 2 52.708408751293412 6.352083658244994 2 69.37591217426376 20.988679266975069 2 82.286797723719971 14.007703641643721 2 5.8702529965030541 13.370843961780325 2 44.738881010599378 3.9787609028441562 2 56.850552623801079 11.48402214678487 2 71.136049897672194 1.6 2 81.147265703773726 1.6 2 21.381086113386512 3.2838050948164259 2 46.537936653387625 17.81422925535524 2 51.301656668184563 13.255636109053224 2 70.838108208727903 17.736444784187377 2 76.941844619678065 11.020003510382416 2 4.0249740443474336 11.09748856366209 2 26.354161511628963 14.207749084098911 2 46.311860009853703 9.6639508091292559 2 48.138541136909843 23.239570192167378 2 68.952210385453455 1.6 2 89.182727279858 4.5934553656434227 2 26.654119869942505 1.6 2 36.498056039225659 13.603821569984245 2 54.774310271336141 4.7377072081589047 2 67.384310867904702 14.981722859114344 2 82.774596919080579 18.281393027257476 2 48.526072991541433 15.837729190135143 2 55.131960435099458 9.6263838591986453 2 81.064845761461783 3.806114084840484 2 86.133400883252875 12.107648547986773 2 23.209601565891496 10.542785050568595 2 41.121583681542063 18.485231991768618 2 50.443285658660336 18.308829173406984 2 73.163861390125163 21.21365419911308 2 75.788428267081059 10.995666481483905 2 48.821833445292945 5.9851772474038487 2 59.285835296581553 15.11725368609754 2 73.618893943310994 13.690463213915802 2 87.128772582826301 18.643802416395825 2 27.177014438804687 8.3003105780422004 2 42.786019413814046 5.9794279436976128 2 53.268097614416888 7.4110989698015475 2 66.705909557732483 13.773289403219815 2 79.136905246481717 13.913457738451937 2 43.786357570160064 1.6 2 60.784292590076163 14.305420668619101 2 74.578372356458615 1.6 2 83.317741491523336 3.0807577647133266 2 21.698458151565855 4.8576741093029447 2 43.589171669517121 21.459491838590019 2 52.490594317070673 9.9833017158952586 2 69.233372738846356 17.512223108065275 2 79.756744728213647 8.7309472429833601 2 28.650445259339676 15.972121219636787 2 51.473063977995132 4.2508400854354313 2 56.946551464350463 18.421382105360379 2 70.722550067161876 5.4235889006555986 2 87.902800735405307 5.5690649806449475 2 30.671326539017912 6.0207545086113186 2 39.739571492851631 7.9779075696433086 2 56.283731630659716 1.6 2 71.22415558943861 12.079974763555587 2 91.071315790539586 19.049393004100008 2 11.812050939959436 10.49724444323777 2 43.929837592377936 10.444637685764237 2 56.942870074691136 7.6982506305263119 2 77.006682036094574 1.6 2 82.839819524780637 4.8559600715487194 2 21.220540371221734 9.5907584734568321 2 42.105344233858418 12.346644908335058 2 50.839786168419302 11.970607182561135 2 78.444328307538981 15.439101691323192 2 75.843948473793574 6.8512298170017489 2 20.649907705432827 11.632271032481919 2 50.67286096336921 1.6 2 59.889475584991736 23.271031018978487 2 73.545011752028287 4.7310601492302107 2 87.196286562814677 11.046266028671283 2 31.489047734694655 15.560847890667951 2 41.104597450826162 11.342090661568374 2 51.497181451675104 2.4608736131098747 2 64.241812049719954 20.292000355941333 2 83.96960748564311 16.920101594765605 2 44.718764564304266 6.2533574217519821 2 58.717183542906035 11.133320932215476 2 71.564000897394592 2.6807252478818935 2 81.895934788551344 2.3805590661159743 2 46.369492214123468 19.89550529822727 2 52.785644283457444 16.582563318686592 2 69.990064510210928 23.38596329330494 2 79.25998300052035 11.403265972253486 2 2.9632686538170474 6.1387855677586884 2 22.087217203934046 14.449084235755876 2 48.838514993305566 8.6700720332449261 2 50.423091395489358 22.519262321764575 2 68.736796038263506 4.3997034166346563 2 90.142976260086868 1.6 2 26.272907931046174 4.3932634851755861 2 38.544585493492171 18.921257452517615 2 54.766826058467494 1.6 2 68.251636210249146 8.1819898187761133 2 80.189179156744814 25.164717262810335 2 45.593303579909261 12.125461286204601 2 54.152685192307615 12.536724516311436 2 78.450136859199489 6.9150811299252517 2 84.748466742930205 5.7176184217939836 2 44.974376894853279 14.923232709713323 2 49.563648497116858 17.015058519111367 2 79.216424914355812 22.697729065585641 2 74.708461010533242 11.802439246506738 2 47.293082694496007 4.3063130183451994 2 57.964704208752593 17.197281753103958 2 71.512313642646191 15.600406532878946 2 90.42310778464109 13.118901628501961 2 25.156393849855732 5.8168931292006549 2 42.570031084390024 2.7993926969641714 2 56.202644555944374 5.9647255876076448 2 66.117734221236134 18.463428464507892 2 79.385221310183312 18.224749941033469 2 46.037817322997554 3.9595218739603819 2 60.051444928427017 17.819274972733819 2 74.755903156447147 4.5628421818039069 2 86.586213263701197 1.6 2 43.545687790610287 18.267993006416972 2 50.348923554815165 9.335371218756924 2 70.05891306850414 14.51408009757597 2 83.862762109655989 10.344976717127567 2 4.2521073420732547 1.6 2 22.895243960056014 16.738118418892217 2 51.790844134667211 5.5776227110455716 2 53.986999734716228 25.439281681633485 2 69.724144367499136 7.595868347877861 2 85.449485741460649 4.6970763565987719 2 29.555393864103003 2.6573626192567144 2 39.607933633654063 10.71923157114794 2 59.028997131409724 4.8790763444942691 2 71.311188741721125 8.8280676202647985 2 85.798958181405226 20.148961049429456 2 13.568396003616352 12.571401261861489 2 44.563833045842777 7.7106772072071177 2 61.215159174781292 8.36732840348499 2 77.933553791024977 5.916900941536138 2 81.709812907294534 7.7268504037103174 2 40.103963830223989 14.620867921853398 2 51.515853000511207 17.300428123467185 2 76.28172844518852 12.433251630662546 2 80.053169420998344 5.1011874091693334 2 18.019625286289426 11.716060924578782 2 49.099720754903522 1.6 2 56.388665122230634 21.842762691514036 2 73.837590710693604 6.0309782698522767 2 91.369798182848101 10.088949558559547 2 27.65112122574255 11.983557906124071 2 38.441015537170451 7.0105152747439519 2 53.395851624372611 2.8182402902342805 2 65.658549410366533 22.871888775312016 2 83.356342720594768 12.849876252694671 2 9.24267681096857 11.300301503959119 2 47.234515024949935 5.5255589484308238 2 57.836861464408955 10.327533296132813 2 70.370974919906615 1.6 2 78.884282231258794 2.8083116911027628 2 45.445336464450648 16.349050931586 2 53.289676945782396 13.827846289661661 2 74.506018170535484 19.386388637824229 2 78.115503965144399 10.753165954070418 2 1.6 7.800837010930997 2 24.437627169452941 12.267837900959041 2 46.918735658386034 12.369526342818514 2 50.533721669931758 24.976972326049786 2 66.713642827746042 1.6 2 86.76974721039069 3.5592062510950773 2 25.320536818019072 1.6 2 37.559037397709936 16.594801659655396 2 55.157704323062717 3.7566041996433506 2 66.154725471345188 12.510874848540668 2 81.515972192248697 21.374881062695088 2 46.261409192676808 13.848563594840108 2 54.533917199175193 8.4542968885566552 2 81.125705395504284 4.7654294228461538 2 83.763301565479907 14.516869334648405 2 26.128832272159901 12.650183240521649 2 39.099372094640408 22.749663597062266 2 54.228847385552612 17.14843480294336 2 77.610617048167697 19.056709340876377 2 74.952468068062103 8.2197897709195473 2 45.873538145244694 6.6030772750040656 2 59.932231045750918 11.713731259305554 2 75.458623779429672 16.677679587112301 2 86.084507911574178 13.81599544762987 2 24.967725643126272 7.6521965925865274 2 42.382211715937814 4.1126454817973199 2 54.873743257552832 6.0177911818623322 2 65.00048526468828 16.828633970404994 2 79.595203928308919 16.680973299189581 2 41.955242974306806 1.6 2 59.181772637234026 12.786416461493328 2 73.22011064769238 2.4101095231242615 2 84.951220824363133 1.6 2 21.941399387819409 6.5683131439519382 2 46.010323838024931 24.890230019875844 2 53.848148450756696 9.9658677423953659 2 68.925955499616492 15.429005352031227 2 80.708330442623833 10.428181355208691 2 27.554330993024397 20.267071634178127 2 50.495836109088458 5.1636856893295278 2 55.460929266533164 19.758455353882614 2 72.033541330671042 6.0672658205291397 2 86.128786561914865 7.6960095159437447 2 31.136672460708979 4.5270611644776251 2 38.092041969218705 10.124019863673521 2 58.054204761222813 3.2572511280925358 2 69.167030697646297 10.160271105527565 2 88.733956842654024 19.94793119476568 2 42.45699989067392 9.1612340516256285 2 59.167330044178271 7.605203607945894 2 78.487005672700732 1.6 2 85.430803294862883 6.6172741390706777 2 22.606956412762255 8.797292227060602 2 43.920829139768735 12.145793446499516 2 49.206473526887244 12.203914455074511 2 77.114739182187492 15.966753973922387 2 77.944817719159005 8.0393106361962428 2 48.630879354659946 3.4803537983297739 2 60.941093754615828 21.367867660140679 2 76.274650436226636 4.6113900501534104 2 87.096248400247532 8.5461557874323546 2 30.565739755336789 13.270417295696948 2 40.732064436520638 9.569469158485413 2 52.49316327680534 1.6 2 65.867342954776248 20.566658081767677 2 81.533735383069612 15.348699633910122 2 41.943057902754489 7.208728063524978 2 62.22237181108077 12.073642234927823 2 72.901614494284175 3.7600460656091315 2 82.226805959715122 1.6 2 44.768140626139008 20.098333708421805 2 55.728850604549159 13.335998297539996 2 71.630140266374497 19.265177404063184 2 81.768415881664197 10.935487736383015 2 3.770402202301931 8.4815845941961889 2 20.288766079350101 16.164538396264856 2 48.188083434538726 11.161536735792513 2 52.712229592467075 22.125050059048455 2 70.222037415734604 3.3920796711359982 2 90.883788538982131 2.7826708350321874 2 27.816453506982928 4.1980252425601172 2 33.810364961296607 21.475966