<?xml version="1.0" ?>
<VTKFile byte_order="LittleEndian" type="UnstructuredGrid" version="0.1">
<UnstructuredGrid>
<Piece NumberOfCells="0" NumberOfPoints="18">
<Points>
<DataArray NumberOfComponents="3" format="ascii" type="Float32">0 0 0 33.361426230251553 7.0301819588217418 2 42.480654317388009 5.763385394471026 2 82.492689374234843 1 2 37.998528205425487 7.5264055443046072 2 80.12168280777361 8.9597160842328467 2 31.137745741542922 7.6795115486317016 2 40.693491400686682 4.2995604165777737 2 82.1015212382339 7.914708635645435 2 32.796366926081461 3.1651744522073582 2 39.793921614589493 9.259674422969816 2 42.383863285289003 1 2 33.481823184629093 1.2 2 40.207437213801335 1.4 2 81.884140960204718 5.5146188811836137 2 81.539864675208122 3.078292378649726 2 30.662107421759355 10.732361175254816 2 34.470169759305321 4.7973410483176933 2 </DataArray>
</Points>
<Cells>
<DataArray Name="connectivity" format="ascii" type="Int32">0</DataArray>
<DataArray Name="offsets" format="ascii" type="Int32">0</DataArray>
<DataArray Name="types" format="ascii" type="UInt8">1</DataArray>
</Cells>
<PointData>
<DataArray Name="Points" NumberOfComponents="3" format="ascii" type="Float32">0 0 0 33.361426230251553 7.0301819588217418 2 42.480654317388009 5.763385394471026 2 82.492689374234843 1 2 37.998528205425487 7.5264055443046072 2 80.12168280777361 8.9597160842328467 2 31.137745741542922 7.6795115486317016 2 40.693491400686682 4.2995604165777737 2 82.1015212382339 7.914708635645435 2 32.796366926081461 3.1651744522073582 2 39.793921614589493 9.259674422969816 2 42.383863285289003 1 2 33.481823184629093 1.2 2 40.207437213801335 1.4 2 81.884140960204718 5.5146188811836137 2 81.539864675208122 3.078292378649726 2 30.662107421759355 10.732361175254816 2 34.470169759305321 4.7973410483176933 2 </DataArray>
<DataArray Name="forces" NumberOfComponents="3" format="ascii" type="Float32">0 0 0 -0.013160965297567821 0.11962355040976377 0.0 -0.069779565346285599 0.028727699757684966 0.0 -0.0024896087039359971 -0.10776102886100838 0.0 -0.067127747072979804 0.1102336049585024 0.0 0.056315593257291782 0.086225758814255371 0.0 0.009404921560890428 0.1061363977136498 0.0 0.032073056040022752 0.10996528565167513 0.0 0.065363016616213923 0.036262858265111365 0.0 0.01762584729314471 0.030416330412666052 0.0 -0.0097369698156929974 0.051824555374033091 0.0 -0.0089876210034866358 -0.41568125226481456 0.0 0.10845204510123729 -0.39981885049782145 0.0 -0.017701684674457402 -0.27855382124789446 0.0 0.026915906991981792 0.021768897002702736 0.0 0.039040849182465531 0.0093586750506305938 0.0 -0.011525910365028494 0.14551905585896022 0.0 -0.021228938652543911 0.080290786276674353 0.0 </DataArray>
<DataArray Name="radii" format="ascii" type="Float32">0 1.2 1.4 1 1.2 1.2 1.2 1 1 1 1.4 1 1.2 1.4 1.4 1.2 1.4 1.4 </DataArray>
</PointData>
<CellData/>
</Piece>
</UnstructuredGrid>
</VTKFile>
