<?xml version="1.0" ?>
<VTKFile byte_order="LittleEndian" type="UnstructuredGrid" version="0.1">
<UnstructuredGrid>
<Piece NumberOfCells="0" NumberOfPoints="20">
<Points>
<DataArray NumberOfComponents="3" format="ascii" type="Float32">29.401066241539421 8.6858954474500507 2 98.6698721715339 5.4144574698657282 2 28.305797926618585 1.33012782846611 2 60.488521813096504 8.6322033223296888 2 90.990510848952681 1.33012782846611 2 97.554718975814666 12.426609149491435 2 26.697781153759053 8.8048591146825625 2 98.6698721715339 3.2778744504686244 2 30.392903347297629 5.844292706908857 2 98.6698721715339 7.7414105975079783 2 31.816680207701936 7.9354732575531051 2 96.528469255963927 3.9537678128667157 2 27.217813439237652 4.0407623896070524 2 58.891766457622111 10.668161490261353 2 89.066339112099286 1.33012782846611 2 96.71664580832234 9.1323673475849052 2 28.018454055962678 6.5311142072393134 2 98.6698721715339 1.33012782846611 2 29.424378552304677 3.5300739815505557 2 98.6698721715339 10.234928627520677 2 </DataArray>
</Points>
<Cells>
<DataArray Name="connectivity" format="ascii" type="Int32">0</DataArray>
<DataArray Name="offsets" format="ascii" type="Int32">0</DataArray>
<DataArray Name="types" format="ascii" type="UInt8">1</DataArray>
</Cells>
<PointData>
<DataArray Name="Points" NumberOfComponents="3" format="ascii" type="Float32">29.401066241539421 8.6858954474500507 2 98.6698721715339 5.4144574698657282 2 28.305797926618585 1.33012782846611 2 60.488521813096504 8.6322033223296888 2 90.990510848952681 1.33012782846611 2 97.554718975814666 12.426609149491435 2 26.697781153759053 8.8048591146825625 2 98.6698721715339 3.2778744504686244 2 30.392903347297629 5.844292706908857 2 98.6698721715339 7.7414105975079783 2 31.816680207701936 7.9354732575531051 2 96.528469255963927 3.9537678128667157 2 27.217813439237652 4.0407623896070524 2 58.891766457622111 10.668161490261353 2 89.066339112099286 1.33012782846611 2 96.71664580832234 9.1323673475849052 2 28.018454055962678 6.5311142072393134 2 98.6698721715339 1.33012782846611 2 29.424378552304677 3.5300739815505557 2 98.6698721715339 10.234928627520677 2 </DataArray>
<DataArray Name="forces" NumberOfComponents="3" format="ascii" type="Float32">-0.072985235779124275 0.12701615328632312 0.0 0.2786226029896412 0.1034151490443212 0.0 -0.042383321737863855 -0.17585497782176188 0.0 -0.002524230439617775 0.064085654281726495 0.0 0.0042424489881141281 -0.55784068351138694 0.0 -0.080556661689035552 0.18886439620462342 0.0 -0.016876277694717626 0.029184303764582791 0.0 0.39847563604641945 0.063255324377741173 0.0 0.049564974868621818 0.072655248377015411 0.0 0.46688825849526816 0.1520691594363569 0.0 -0.012710944390819059 0.1884795980604666 0.0 -0.019120863911576708 0.08655305217093183 0.0 -0.10674723141596282 0.038372979940876101 0.0 0.010294582037820257 0.091555531866523543 0.0 -0.0014416367888103743 -0.21717603464908949 0.0 -0.011061934796336326 0.12239336850312371 0.0 0.031949143702821703 0.029238637405058436 0.0 0.83594058646668934 -0.71711873570126849 0.0 -0.052382793833847807 0.078417792967771974 0.0 0.4610299392367822 0.19577112048039075 0.0 </DataArray>
<DataArray Name="radii" format="ascii" type="Float32">1.33012782846611 1.33012782846611 1.33012782846611 1.33012782846611 1.33012782846611 1.33012782846611 1.33012782846611 1.33012782846611 1.33012782846611 1.33012782846611 1.33012782846611 1.33012782846611 1.33012782846611 1.33012782846611 1.33012782846611 1.33012782846611 1.33012782846611 1.33012782846611 1.33012782846611 1.33012782846611 </DataArray>
</PointData>
<CellData/>
</Piece>
</UnstructuredGrid>
</VTKFile>
