<?xml version="1.0" ?>
<VTKFile byte_order="LittleEndian" type="UnstructuredGrid" version="0.1">
<UnstructuredGrid>
<Piece NumberOfCells="0" NumberOfPoints="8">
<Points>
<DataArray NumberOfComponents="3" format="ascii" type="Float32">1.8668795409729353 1.2500000000000002 2 9.9299999999999997 1.2500000000000002 2 18.603931997283059 1.2500000000000002 2 39.326584404775723 1.2500000000000002 2 50.307799155985883 1.3374961890563981 2 65.768133915063231 1.2500000000000002 2 68.137145495417883 1.2500000000000002 2 83.234390189876081 1.2500000000000002 2 </DataArray>
</Points>
<Cells>
<DataArray Name="connectivity" format="ascii" type="Int32">0</DataArray>
<DataArray Name="offsets" format="ascii" type="Int32">0</DataArray>
<DataArray Name="types" format="ascii" type="UInt8">1</DataArray>
</Cells>
<PointData>
<DataArray Name="Points" NumberOfComponents="3" format="ascii" type="Float32">1.8668795409729353 1.2500000000000002 2 9.9299999999999997 1.2500000000000002 2 18.603931997283059 1.2500000000000002 2 39.326584404775723 1.2500000000000002 2 50.307799155985883 1.3374961890563981 2 65.768133915063231 1.2500000000000002 2 68.137145495417883 1.2500000000000002 2 83.234390189876081 1.2500000000000002 2 </DataArray>
<DataArray Name="forces" NumberOfComponents="3" format="ascii" type="Float32">-0.00017253971296331573 -3.3217433104915644e-05 0.0 0.0 0.0 0.0 0.00030642571239411726 -6.6239690706410023e-05 0.0 -0.010912719142946455 -0.0081315484808144843 0.0 -0.0056354148605863019 0.0075762378790306135 0.0 0.071133145424784397 -0.014532057022192332 0.0 -0.03574111664673188 0.00088382894728108324 0.0 -0.034661589265509635 -0.0028718670244088544 0.0 </DataArray>
<DataArray Name="radii" format="ascii" type="Float32">1.2500000000000002 1.2500000000000002 1.2500000000000002 1.2500000000000002 1.2500000000000002 1.2500000000000002 1.2500000000000002 1.2500000000000002 </DataArray>
</PointData>
<CellData/>
</Piece>
</UnstructuredGrid>
</VTKFile>
