<?xml version="1.0" ?>
<VTKFile byte_order="LittleEndian" type="UnstructuredGrid" version="0.1">
<UnstructuredGrid>
<Piece NumberOfCells="0" NumberOfPoints="768">
<Points>
<DataArray NumberOfComponents="3" format="ascii" type="Float32">36.893601775862457 11.119775476137349 2 51.330110898877919 18.325577718449136 2 67.914852861319076 14.922361764678332 2 75.411453681093548 17.554974647423975 2 91.714378406339591 9.5894878727438009 2 92.564177655801743 1.4 2 44.094181603241296 9.5538399127959099 2 55.363549988539489 3.5679358448369642 2 74.050857532853598 12.004017063705529 2 80.190360833507853 2.9692072307885513 2 86.032824331642516 1.4 2 98.6 8.5449259643630828 2 40.702587498064503 7.9907499608413914 2 53.033143183846896 9.2867001096767527 2 67.708509841278143 4.1288585424606739 2 82.966159240966817 12.383624425275995 2 87.894757333607302 1.4 2 92.485864103114253 13.598930178130928 2 40.471376876585907 2.7999625831364594 2 59.914790852502144 8.3034518757282409 2 70.770388054697335 11.666898558710335 2 75.268624646826979 1.4 2 87.424222090005287 22.205578071305471 2 97.596321715209328 4.7412335347905543 2 36.004072635278163 3.9071100205644838 2 52.22585700473654 20.374141431939993 2 65.455352331533149 22.87021220797838 2 77.13638974350647 14.196037278500395 2 87.632145331637687 14.26295624922748 2 94.799558562381279 8.9057701780024878 2 42.335097987016518 17.341443624710809 2 54.657122338494119 7.9961953445318414 2 71.782797876917613 3.9761151077420736 2 76.729730152502 7.4852243681919397 2 79.83960418763418 1.4 2 98.6 21.974237033104846 2 39.184421457270503 12.824046270748253 2 54.803078201272683 5.109828858805554 2 66.860189850427815 6.0097612487633603 2 82.900700734279312 11.059743774859053 2 87.108029480443989 8.5872398205750127 2 93.148422414704939 18.12071085624034 2 38.934488077598083 5.4097510670573143 2 57.237418675931181 1.4 2 72.400191163265248 23.498127927562045 2 76.434250852471479 1.4 2 84.41088865948835 9.0110038820773308 2 94.392937139509058 1.4 2 35.6994155443804 5.8583304895484112 2 49.464246086146119 11.128206796141322 2 66.515168931041572 17.194161279965385 2 77.325507668245876 10.968615974969962 2 89.712669527800074 11.377543193453569 2 91.868216632221035 1.4 2 44.628575361279069 15.668842873765787 2 54.422624218615326 1.4 2 73.072271834718677 5.7808877825778975 2 80.344749716957082 6.1669688642392986 2 85.723750771084198 4.5605006476371868 2 96.701157000549784 10.792522807133523 2 39.265083474014141 10.847632775365764 2 50.942742296523086 7.1841119019359896 2 72.009674261460134 5.8908908060048129 2 82.158709175859485 19.568569432622269 2 90.022387253918552 4.8094632893036726 2 89.604667178348706 17.36013885872687 2 43.016304120313663 5.5228923882134309 2 56.734814208142488 8.4304087912006942 2 69.088679772978978 14.716447024392524 2 75.272531191272378 6.4062373039760478 2 85.01996294016611 14.652516153289259 2 98.6 3.3886429289755324 2 37.676647005209503 5.7945224924980012 2 56.866141454910405 23.714492340336875 2 65.209604561028229 14.086492278861073 2 79.643090944449838 22.614884877625691 2 89.524267334023364 18.945810316005776 2 93.719164823256463 6.8685646171887731 2 41.310680615415926 13.644931588074838 2 54.287583893996157 12.297586419428596 2 71.978065483054706 1.4 2 78.151616167258751 11.867975570342688 2 84.085822192881537 4.0765812696612977 2 98.6 15.858981303429278 2 40.296431280588827 22.363488989215615 2 51.603360100780819 1.4 2 71.729956246084271 8.5837615506366785 2 78.911260561198446 16.306523771163118 2 89.68189671369916 9.6707653503027462 2 97.314865221367995 12.838028244785962 2 38.616703603989365 1.4 2 58.805130002325086 4.5963566386251058 2 72.603676207370938 14.580985846893586 2 78.415410374088324 6.2517004600531232 2 83.898242734262539 6.1530487314675248 2 95.145957389444803 5.7919874518515515 2 35.654512796882862 10.804404716380123 2 52.968092651703891 15.151428440897529 2 66.111435818019189 11.065351980640193 2 75.826738736274621 21.058954870448275 2 93.008868433174243 7.8616236884612007 2 93.759082387451969 2.7427314195444197 2 42.670495724723395 11.8208416307 2 56.812123987003304 6.8976217480766833 2 74.997038592254299 10.199491124031431 2 79.300851261958883 2.090448168569552 2 84.127927167964089 1.4 2 96.431984714253389 6.7362552949286405 2 39.759194818461246 7.2964483216615728 2 51.76354327240945 11.788733004870505 2 69.771942873871893 1.4 2 83.950188540497024 9.9724798704480122 2 89.825915861287427 1.4 2 91.313890886854566 14.091768326329637 2 40.079008642783862 3.7527935675476702 2 59.615760024568225 12.212848999807029 2 72.039879654830855 9.9128653720365367 2 76.050512696351177 3.1529134872740161 2 83.417512533302428 19.275331570855975 2 98.6 7.3082948453116359 2 36.784021816145959 1.4 2 53.902376844403186 22.538517870579305 2 66.6014028248633 15.924085083919806 2 77.87344931413638 16.87713123831778 2 88.251852229261132 18.117597174830749 2 92.04533538747846 11.481700508396537 2 43.589823593612536 23.140730070464905 2 55.403470238465857 11.686133788527373 2 72.621891558529271 1.4 2 75.750504006934179 7.494607778258378 2 82.994016996713171 1.4 2 97.066627054954651 17.407734226167548 2 37.752188921355391 15.24988548139077 2 53.446107570892934 4.0748212126259746 2 69.827736650065219 8.4014687023037418 2 79.268404929241669 12.68722209931239 2 86.011155460790619 11.074893776036072 2 95.961860428705322 20.735596885571788 2 40.54414102517871 6.8483143155527717 2 56.67270148868748 3.2605543183357462 2 70.084716769810683 16.988707882392291 2 78.102690338211389 5.3090252577383037 2 82.993503772508447 8.6046492525220852 2 96.99863310176984 1.4 2 35.559831489878768 3.1167300476666622 2 52.969676816552976 13.135429920026997 2 69.622529050612101 23.050754729419612 2 75.882434035211048 13.536365220439714 2 90.842081591413674 11.896453989504739 2 92.212133232231579 4.1181988003155574 2 43.013825134416102 15.857957757592811 2 56.528220987197301 1.4 2 74.469708819286339 8.0406535917576232 2 82.093611278593812 3.0906596654131495 2 86.826629144856895 7.485535865564283 2 95.171165590295516 12.96628036807218 2 38.216194434092536 7.9557772441068115 2 52.99224207466871 6.0280096013283728 2 68.885582210900807 5.7647175506513735 2 84.168770333759483 16.110459264514748 2 86.970677265331034 2.9551836255285573 2 89.086005721955019 13.526434417895127 2 42.285711481852317 3.380751635258997 2 58.350442646404858 11.141429555016293 2 70.560437087676803 14.949353310223982 2 74.294356513482114 2.9943245309508435 2 86.010204350310744 16.384054461216135 2 98.6 1.4 2 35.258011703282534 7.9741337545712048 2 56.228604459302225 17.589135421305009 2 63.541962000232225 14.094632856738146 2 77.35660246401666 22.64534725892754 2 92.894538015919181 19.478092564035151 2 90.925425937165514 5.344663896462019 2 41.570966223839307 11.356189851264748 2 55.22519953762545 12.99060195654611 2 68.867291782501141 4.5412662295897661 2 80.362899606606362 8.2006390039358603 2 84.263181321806968 7.0686243020805843 2 98.6 11.646896451295936 2 40.882415612572558 16.754021133024967 2 52.488168656689126 4.0991975970236156 2 69.715481787228626 12.25872872208534 2 81.624512038672421 15.057441782143124 2 89.751428121135831 7.0613919913289589 2 94.82211879423005 16.02516540979299 2 37.862492451892663 3.5320835387058764 2 58.483802018961157 6.7305913666750845 2 72.745653537257425 16.695005547707805 2 77.562327824725074 6.7502842892322876 2 81.315933627616786 7.3781372537612064 2 95.608110599684764 6.9803020321570832 2 37.949292704568144 9.137767886650856 2 51.02069650838687 16.022898958171748 2 66.394219699928854 14.752091085593804 2 74.731493490919036 15.85242102030716 2 89.788900689038428 8.4872286582764307 2 92.78077831484768 3.0028115531790891 2 42.930002288077461 8.2665772503898864 2 54.601891163723288 2.6891423124804881 2 72.929909823370153 11.824877193159951 2 79.197188265087775 3.3663845658674254 2 85.343763590046692 1.4 2 96.455640244709301 9.8582146549204221 2 42.094539360162898 9.283350021421839 2 53.758302053877038 10.118362946621058 2 67.975671865249765 2.6334847339694401 2 81.747278326191633 12.839695043626813 2 88.526719409953103 1.4 2 93.889732912218548 13.205969038630148 2 40.839309773195602 1.4 2 57.759313174152453 8.7819278010548594 2 72.122243524080147 13.291895498325161 2 74.102056428198239 1.4 2 85.240468144801042 22.365670090848315 2 95.696344184010897 2.6072862369160537 2 34.936460294391935 4.1147180413548661 2 53.796830710388058 20.560578264393413 2 65.941340629769471 18.500423998437167 2 78.459494965712423 15.09102749284842 2 86.452918488162211 14.151186176120778 2 94.306711750115625 7.7946620329172278 2 43.357770133588858 20.694811229657279 2 55.923758758654792 7.4529061229283382 2 71.664853681379924 3.0955636377721465 2 77.160381590001862 9.8024878089482801 2 81.15811537679518 1.4 2 96.436789527609236 19.109676621962745 2 39.583277287337928 14.106246378130141 2 53.881397458898874 6.20103649177205 2 66.627834854778783 7.0387976210870518 2 80.884128917407551 9.8279156801620466 2 86.664368788252133 10.302511870304913 2 91.250795380466727 16.115577221184171 2 38.702519231879442 6.2848931836397295 2 58.637845887773878 2.5639934483705753 2 71.096692690898863 21.784491713927473 2 77.051013072304656 1.4 2 86.414822485550545 9.2901669851152882 2 93.794896586490268 1.4 2 34.492216547848415 7.3016568118254161 2 48.836507947216624 12.506466085042341 2 68.732788445134815 16.892979495259304 2 76.06787639997458 9.6217176220030787 2 88.377536860657102 12.518383501667326 2 91.168623922602194 1.4 2 45.20793754961678 13.761669759645041 2 53.085506213593249 1.4 2 73.8040897321344 7.4274715488062872 2 81.020197771421323 4.8980709652177827 2 86.696668265200515 5.4394005465888453 2 98.431878206429033 7.9779238567798965 2 40.436534260336856 10.312965423493228 2 49.582924235049347 5.4431351834401331 2 70.33146117601801 5.9861850391011302 2 82.964556807625172 17.693134908405849 2 88.704955804836857 3.6833408099238167 2 91.451052578592083 18.733661812137605 2 42.132010628206018 7.6266557375807364 2 55.648871128723691 9.298497
[...]
<PointData>
<DataArray Name="Points" NumberOfComponents="3" format="ascii" type="Float32">36.893601775862457 11.119775476137349 2 51.330110898877919 18.325577718449136 2 67.914852861319076 14.922361764678332 2 75.411453681093548 17.554974647423975 2 91.714378406339591 9.5894878727438009 2 92.564177655801743 1.4 2 44.094181603241296 9.5538399127959099 2 55.363549988539489 3.5679358448369642 2 74.050857532853598 12.004017063705529 2 80.190360833507853 2.9692072307885513 2 86.032824331642516 1.4 2 98.6 8.5449259643630828 2 40.702587498064503 7.9907499608413914 2 53.033143183846896 9.2867001096767527 2 67.708509841278143 4.1288585424606739 2 82.966159240966817 12.383624425275995 2 87.894757333607302 1.4 2 92.485864103114253 13.598930178130928 2 40.471376876585907 2.7999625831364594 2 59.914790852502144 8.3034518757282409 2 70.770388054697335 11.666898558710335 2 75.268624646826979 1.4 2 87.424222090005287 22.205578071305471 2 97.596321715209328 4.7412335347905543 2 36.004072635278163 3.9071100205644838 2 52.22585700473654 20.374141431939993 2 65.455352331533149 22.87021220797838 2 77.13638974350647 14.196037278500395 2 87.632145331637687 14.26295624922748 2 94.799558562381279 8.9057701780024878 2 42.335097987016518 17.341443624710809 2 54.657122338494119 7.9961953445318414 2 71.782797876917613 3.9761151077420736 2 76.729730152502 7.4852243681919397 2 79.83960418763418 1.4 2 98.6 21.974237033104846 2 39.184421457270503 12.824046270748253 2 54.803078201272683 5.109828858805554 2 66.860189850427815 6.0097612487633603 2 82.900700734279312 11.059743774859053 2 87.108029480443989 8.5872398205750127 2 93.148422414704939 18.12071085624034 2 38.934488077598083 5.4097510670573143 2 57.237418675931181 1.4 2 72.400191163265248 23.498127927562045 2 76.434250852471479 1.4 2 84.41088865948835 9.0110038820773308 2 94.392937139509058 1.4 2 35.6994155443804 5.8583304895484112 2 49.464246086146119 11.128206796141322 2 66.515168931041572 17.194161279965385 2 77.325507668245876 10.968615974969962 2 89.712669527800074 11.377543193453569 2 91.868216632221035 1.4 2 44.628575361279069 15.668842873765787 2 54.422624218615326 1.4 2 73.072271834718677 5.7808877825778975 2 80.344749716957082 6.1669688642392986 2 85.723750771084198 4.5605006476371868 2 96.701157000549784 10.792522807133523 2 39.265083474014141 10.847632775365764 2 50.942742296523086 7.1841119019359896 2 72.009674261460134 5.8908908060048129 2 82.158709175859485 19.568569432622269 2 90.022387253918552 4.8094632893036726 2 89.604667178348706 17.36013885872687 2 43.016304120313663 5.5228923882134309 2 56.734814208142488 8.4304087912006942 2 69.088679772978978 14.716447024392524 2 75.272531191272378 6.4062373039760478 2 85.01996294016611 14.652516153289259 2 98.6 3.3886429289755324 2 37.676647005209503 5.7945224924980012 2 56.866141454910405 23.714492340336875 2 65.209604561028229 14.086492278861073 2 79.643090944449838 22.614884877625691 2 89.524267334023364 18.945810316005776 2 93.719164823256463 6.8685646171887731 2 41.310680615415926 13.644931588074838 2 54.287583893996157 12.297586419428596 2 71.978065483054706 1.4 2 78.151616167258751 11.867975570342688 2 84.085822192881537 4.0765812696612977 2 98.6 15.858981303429278 2 40.296431280588827 22.363488989215615 2 51.603360100780819 1.4 2 71.729956246084271 8.5837615506366785 2 78.911260561198446 16.306523771163118 2 89.68189671369916 9.6707653503027462 2 97.314865221367995 12.838028244785962 2 38.616703603989365 1.4 2 58.805130002325086 4.5963566386251058 2 72.603676207370938 14.580985846893586 2 78.415410374088324 6.2517004600531232 2 83.898242734262539 6.1530487314675248 2 95.145957389444803 5.7919874518515515 2 35.654512796882862 10.804404716380123 2 52.968092651703891 15.151428440897529 2 66.111435818019189 11.065351980640193 2 75.826738736274621 21.058954870448275 2 93.008868433174243 7.8616236884612007 2 93.759082387451969 2.7427314195444197 2 42.670495724723395 11.8208416307 2 56.812123987003304 6.8976217480766833 2 74.997038592254299 10.199491124031431 2 79.300851261958883 2.090448168569552 2 84.127927167964089 1.4 2 96.431984714253389 6.7362552949286405 2 39.759194818461246 7.2964483216615728 2 51.76354327240945 11.788733004870505 2 69.771942873871893 1.4 2 83.950188540497024 9.9724798704480122 2 89.825915861287427 1.4 2 91.313890886854566 14.091768326329637 2 40.079008642783862 3.7527935675476702 2 59.615760024568225 12.212848999807029 2 72.039879654830855 9.9128653720365367 2 76.050512696351177 3.1529134872740161 2 83.417512533302428 19.275331570855975 2 98.6 7.3082948453116359 2 36.784021816145959 1.4 2 53.902376844403186 22.538517870579305 2 66.6014028248633 15.924085083919806 2 77.87344931413638 16.87713123831778 2 88.251852229261132 18.117597174830749 2 92.04533538747846 11.481700508396537 2 43.589823593612536 23.140730070464905 2 55.403470238465857 11.686133788527373 2 72.621891558529271 1.4 2 75.750504006934179 7.494607778258378 2 82.994016996713171 1.4 2 97.066627054954651 17.407734226167548 2 37.752188921355391 15.24988548139077 2 53.446107570892934 4.0748212126259746 2 69.827736650065219 8.4014687023037418 2 79.268404929241669 12.68722209931239 2 86.011155460790619 11.074893776036072 2 95.961860428705322 20.735596885571788 2 40.54414102517871 6.8483143155527717 2 56.67270148868748 3.2605543183357462 2 70.084716769810683 16.988707882392291 2 78.102690338211389 5.3090252577383037 2 82.993503772508447 8.6046492525220852 2 96.99863310176984 1.4 2 35.559831489878768 3.1167300476666622 2 52.969676816552976 13.135429920026997 2 69.622529050612101 23.050754729419612 2 75.882434035211048 13.536365220439714 2 90.842081591413674 11.896453989504739 2 92.212133232231579 4.1181988003155574 2 43.013825134416102 15.857957757592811 2 56.528220987197301 1.4 2 74.469708819286339 8.0406535917576232 2 82.093611278593812 3.0906596654131495 2 86.826629144856895 7.485535865564283 2 95.171165590295516 12.96628036807218 2 38.216194434092536 7.9557772441068115 2 52.99224207466871 6.0280096013283728 2 68.885582210900807 5.7647175506513735 2 84.168770333759483 16.110459264514748 2 86.970677265331034 2.9551836255285573 2 89.086005721955019 13.526434417895127 2 42.285711481852317 3.380751635258997 2 58.350442646404858 11.141429555016293 2 70.560437087676803 14.949353310223982 2 74.294356513482114 2.9943245309508435 2 86.010204350310744 16.384054461216135 2 98.6 1.4 2 35.258011703282534 7.9741337545712048 2 56.228604459302225 17.589135421305009 2 63.541962000232225 14.094632856738146 2 77.35660246401666 22.64534725892754 2 92.894538015919181 19.478092564035151 2 90.925425937165514 5.344663896462019 2 41.570966223839307 11.356189851264748 2 55.22519953762545 12.99060195654611 2 68.867291782501141 4.5412662295897661 2 80.362899606606362 8.2006390039358603 2 84.263181321806968 7.0686243020805843 2 98.6 11.646896451295936 2 40.882415612572558 16.754021133024967 2 52.488168656689126 4.0991975970236156 2 69.715481787228626 12.25872872208534 2 81.624512038672421 15.057441782143124 2 89.751428121135831 7.0613919913289589 2 94.82211879423005 16.02516540979299 2 37.862492451892663 3.5320835387058764 2 58.483802018961157 6.7305913666750845 2 72.745653537257425 16.695005547707805 2 77.562327824725074 6.7502842892322876 2 81.315933627616786 7.3781372537612064 2 95.608110599684764 6.9803020321570832 2 37.949292704568144 9.137767886650856 2 51.02069650838687 16.022898958171748 2 66.394219699928854 14.752091085593804 2 74.731493490919036 15.85242102030716 2 89.788900689038428 8.4872286582764307 2 92.78077831484768 3.0028115531790891 2 42.930002288077461 8.2665772503898864 2 54.601891163723288 2.6891423124804881 2 72.929909823370153 11.824877193159951 2 79.197188265087775 3.3663845658674254 2 85.343763590046692 1.4 2 96.455640244709301 9.8582146549204221 2 42.094539360162898 9.283350021421839 2 53.758302053877038 10.118362946621058 2 67.975671865249765 2.6334847339694401 2 81.747278326191633 12.839695043626813 2 88.526719409953103 1.4 2 93.889732912218548 13.205969038630148 2 40.839309773195602 1.4 2 57.759313174152453 8.7819278010548594 2 72.122243524080147 13.291895498325161 2 74.102056428198239 1.4 2 85.240468144801042 22.365670090848315 2 95.696344184010897 2.6072862369160537 2 34.936460294391935 4.1147180413548661 2 53.796830710388058 20.560578264393413 2 65.941340629769471 18.500423998437167 2 78.459494965712423 15.09102749284842 2 86.452918488162211 14.151186176120778 2 94.306711750115625 7.7946620329172278 2 43.357770133588858 20.694811229657279 2 55.923758758654792 7.4529061229283382 2 71.664853681379924 3.0955636377721465 2 77.160381590001862 9.8024878089482801 2 81.15811537679518 1.4 2 96.436789527609236 19.109676621962745 2 39.583277287337928 14.106246378130141 2 53.881397458898874 6.20103649177205 2 66.627834854778783 7.0387976210870518 2 80.884128917407551 9.8279156801620466 2 86.664368788252133 10.302511870304913 2 91.250795380466727 16.115577221184171 2 38.702519231879442 6.2848931836397295 2 58.637845887773878 2.5639934483705753 2 71.096692690898863 21.784491713927473 2 77.051013072304656 1.4 2 86.414822485550545 9.2901669851152882 2 93.794896586490268 1.4 2 34.492216547848415 7.3016568118254161 2 48.836507947216624 12.506466085042341 2 68.732788445134815 16.892979495259304 2 76.06787639997458 9.6217176220030787 2 88.377536860657102 12.518383501667326 2 91.168623922602194 1.4 2 45.20793754961678 13.761669759645041 2 53.085506213593249 1.4 2 73.8040897321344 7.4274715488062872 2 81.020197771421323 4.8980709652177827 2 86.696668265200515 5.4394005465888453 2 98.431878206429033 7.9779238567798965 2 40.436534260336856 10.312965423493228 2 49.582924235049347 5.4431351834401331 2 70.33146117601801 5.9861850391011302 2 82.964556807625172 17.693134908405849 2 88.704955804836857 3.6833408099238167 2 91.451052578592083 18.733661812137605 2 42.132010628206018 7.6266557375807364 2 55.648871128723691 9.2984971109997421 2 68.576753723965084 13.370373005713702 2 73.815130293463866 3.9497542039591873 2 85.74048318739564 13.124274817742064 2 98.6 5.8934749195490772 2 37.076562186308848 4.0064050547642385 2 58.622133160865033 22.330590296967319 2 65.055602859324381 12.237562114069155 2 79.042065337434266 18.615149470371161 2 89.452392156621116 23.212222015351255 2 92.074395723022661 5.2161827957757954 2 40.596230762924797 14.505660244691891 2 52.549227950998734 12.260726109384549 2 70.849128555718096 1.4 2 79.774879772423986 10.514836731838932 2 84.737226145847984 5.1557745944932565 2 98.6 13.523749758953484 2 40.748974325661173 19.613203432467834 2 51.434870726437872 2.5768374233840703 2 70.617001685436364 10.374301983275959 2 80.933454386840523 18.014455231888999 2 89.027975080521841 7.8052594983176613 2 96.491078486588989 14.210448165179329 2 39.724604303312312 1.4 2 58.066404080663943 5.2048738232731946 2 73.730010546421667 14.140531346182851 2 80.134866843376372 7.2544599272053309 2 82.786329836977359 4.8775820819671836 2 95.658333619222518 3.5900006965233628 2 34.327283246890623 11.77523249072024 2 54.40287631159385 16.00270119072632 2 64.121113700077004 10.822351424828966 2 72.886883858882555 19.379318211122836 2 93.438103921461519 9.8882968098090824 2 94.099230499455118 5.0773158503849034 2 43.101430540262456 13.354056937871468 2 55.960757542068229 5.1834759945469111 2 73.808182072992068 10.284993141432937 2 78.104254801720657 3.4700229063697514 2 84.754213381328086 2.7294644592661621 2 96.765387371886121 5.349653097504917 2 38.849269593279097 8.9799921495970274 2 51.959367096278541 9.4674412439834406 2 68.56569972698864 1.4 2 84.117779241396988 12.41140487155163 2 89.210408719655518 2.8878307650745811 2 93.122974974260259 15.532507547891896 2 39.108537671573878 3.7409714449419638 2 59.87871410359238 9.7063795995238777 2 71.19215011642693 6.5403767538315378 2 76.907895222913439 3.7037308744432731 2 83.414936877548158 21.409857447129486 2 98.6 4.4116408516064736 2 38.036956675127314 1.4 2 55.907303720760169 22.132879399539274 2 64.917867637810247 17.154237157635549 2 76.163949384415019 16.179733197687394 2 87.205799759054187 16.517578594273317 2 92.941958226572751 10.809847716309731 2 41.920557898291868 22.672589056119836 2 56.486369379117249 12.107922360982874 2 72.494534834793399 3.0533441566427708 2 75.416399332734969 8.507525640998681 2 81.840617345099631 1.4 2 98.6 17.136234449765919 2 38.441892273744848 16.381614919762818 2 52.98315262713129 3.2240890332161718 2 68.796034798985559 7.9558531664695584 2 80.400554306345697 12.076159610301733 2 86.436459776689148 12.308159640234663 2 95.721977287753447 18.119049109356947 2 41.900189836162617 5.3002345896886167 2 57.485817614882862 4.1921270347744573 2 71.546999030510889 19.778598129816146 2 79.280982463593887 5.5285917839452878 2 82.000058167600614 9.1531400671823597 2 96.33031869412342 1.4 2 33.522298053119073 2.962570287148913 2 52.088883180491074 13.762792929206988 2 68.535042166280334 19.472250937998222 2 75.525287376114733 12.218445881557049 2 90.398658726653409 10.5251454157849 2 90.878373319313695 3.0986561519271962 2 42.407282776747294 14.776226073026264 2 55.660064199891188 1.4 2 72.691896709700117 9.2977632962965586 2 81.393477489290305 6.1674398312646055 2 88.590079545191813 6.6163713136582585 2 95.4518495253472 10.65850217909426 2 35.564379013543181 9.3520831163158054 2 53.032586298073646 7.2780798507682514 2 69.549852792163563 6.8892517707936536 2 82.613927203820268 14.564586315957746 2 87.842503401698735 4.6462721371185767 2 89.979734381985736 15.797388068426367 2 41.586393062865461 4.4058850906186047 2 56.734961966108678 9.586267287196204 2 70.70380843083197 12.96874547035164 2 74.109360893129974 5.2268120752996596 2 85.932617604611181 18.857443033988037 2 98.6 2.5119003061698315 2 36.696490862822557 7.2827100336723642 2 56.896595882647077 19.82582268664347 2 63.493913767065095 16.279850384234301 2 77.747160790105411 18.602253950230899 2 93.583878713850609 23.551420202761509 2 91.649511016136103 7.2640657302711711 2 40.636865881782064 12.169657114798907 2 54.672616783472009 14.762364744753798 2 69.859884996079785 3.3060611088473437 2 79.192547486739628 8.4189316533931997 2 85.880509172448356 7.8266417793673089 2 98.6 10.817483832193133 2 39.508484770817503 17.39918538362183 2 51.306277143325971 6.0001735980598641 2 68.540199286283212 10.719764236441325 2 79.666763437037474 14.620133056870337 2 89.066140894243659 4.6041963253420208 2 95.403298518849468 14.277221208537936 2 38.517122147644059 4.4767816295968563 2 58.909510703656736 5.7581682747513643 2 74.16227047289027 17.056934198447934 2 75.877633965435678 5.1187061856863982 2 82.83766497486738 6.1604734225905524 2 95.578983000447863 7.9370509292034166 2 37.969513662253405 11.448356515939125 2 52.652286367098938 17.19477333172177 2 67.885179637131969 16.051912476379297 2 75.058648034314317 18.846632391001588 2 90.630340494526564 7.8555559783649631 2 93.18344002766213 1.4 2 43.066430941960178 9.4162423244891915 2 56.427061842611877 4.1263320725705093 2 74.658782429648383 13.056762975500037 2 81.223200909824342 2.3113564366575305 2 86.695342929285928 1.4 2 98.6 10.055838131157145 2 40.655758766474825 9.1099808447266888 2 54.263969367399412 9.0538406131979379 2 67.967993431352824 5.3038179221569344 2 81.875126222709582 11.727442371478558 2 88.149920505413547 2.618790695123395 2 93.358406837093426 14.266933339929286 2 41.102053142831558 3.6455081890641492 2 59.004644667363365 8.8719139419024788 2 71.868260155028906 12.139263207618335 2 74.681005207936167 1.4 2 89.340781275670139 21.120095575289088 2 96.307469764620194 4.2062414037452482 2 36.68550895631541 3.2181415795023223 2 52.451742505087672 21.817286407680172 2 67.055919851057638 21.340166656323373 2 77.93350239910977 13.061569794254911 2 88.884792609288922 14.71074939340501 2 94.596079541867368 9.9859766860266372 2 41.321833320605002 17.890394037652296 2 54.163976075914881 7.2103246061261483 2 71.030586325691743 5.1938259924996855 2 77.691702841663755 8.1569460796397397 2 79.064275381642801 1.4 2 97.843389678781278 20.799797555221023 2 39.089042075310324 11.810317302331162 2 54.873719793278717 5.9971938133354259 2 65.865897745530376 5.6627507720468016 2 82.933113871552393 9.7486460537151221 2 88.703168747912031 9.5153788519639306 2 94.455492328115852 17.943370282916725 2 39.865383608452682 6.0081349110906537 2 57.54791824561994 2.2499384875842443 2 73.02880627198293 21.317975331899763 2 75.860469858418753 1.4 2 85.035596843205525 8.0090024189179356 2 95.696729968733038 1.4 2 34.769197947193192 6.2972958607715555 2 51.024056284694886 12.625224458904061 2 67.568183708235964 17.840858535121058 2 76.853034566031226 12.864503505383013 2 88.763016429427523 10.659560933039772 2 91.877812336519284 2.2403818861920501 2 44.871122180673119 16.880238659928452 2 52.49552729502404 1.9438423517818595 2 73.054986736189804 6.8408948993926986 2 80.147017736325651 5.169795550109197 2 85.086350504303383 3.7288015159236907 2 95.951445585310765 11.71458273648501 2 37.47305212778511 10.219408061026094 2 50.482835005341705 5.7142195172765371 2 72.138306113035782 4.9432328425811543 2 80.511106366740393 19.243308670322158 2 89.98258941447547 3.6850921501321228 2 90.947841951794743 17.558756745366715 2 44.186424177073363 5.2598967048279972 2 57.483668529944772 7.6162944104840742 2 69.769761709697335 15.804041850256997 2 75.015578583823441 5.3918853617000018 2 83.825418732482404 14.803617295434366 2 98.516859516385253 3.7240211735563924 2 36.669876209773676 6.2210516680893058 2 55.023600098880245 24.392852237659419 2 63.402881717233278 15.211000771503672 2 81.244604846095854 20.989758722770901 2 90.602554208742291 20.139008851055657 2 93.411123719805161 5.8104796735445845 2 42.280191149799336 13.718135700549304 2 54.455615327983452 11.140897648589931 2 72.962970122270562 1.9262559220222211 2 79.265645450023968 11.45709232472726 2 83.937693496905737 3.2239721644558048 2 97.521138282282735 16.060714220505918 2 40.318844539149666 20.864538043492043 2 52.305743924360534 1.4 2 70.441841780078491 7.3105661438586909 2 79.656261211220738 17.178074185306649 2 87.653265769381832 9.8702080686656206 2 97.369000760780096 11.547915653285484 2 39.561269468673615 2.779254282373175 2 58.66464027693992 3.6725618384754726 2 73.477090489435355 15.560177479133719 2 79.238897480835007 6.8337897820289886 2 83.72674650394481 5.1970087389089352 2 94.984364314920825 4.7157248295007985 2 36.359558012182781 10.07189941842066 2 51.886031947015752 15.118541383198551 2 66.111679835739125 12.205538975879957 2 74.76588232402564 22.72038634402552 2 91.79841384066556 8.2807000247323383 2 94.408750414687134 3.8357816163580298 2 41.870227622640186 12.512623876191148 2 57.588638147555763 6.2201612169697338 2 74.712297897079509 11.217594186452338 2 77.667121686160215 1.4 2 83.576550768424738 1.4 2 97.393978185065265 6.1481635212611572 2 38.839184566762455 7.2336894595315702 2 50.710503697541327 11.346499927203988 2 69.117540586717979 2.7210801785151841 2 85.119617461310909 11.752178439285082 2 90.121704075196845 2.3658350481402755 2 90.134839477172505 14.545622811874345 2 40.590301695281184 4.8386126018088529 2 60.127231404034276 10.827776351648597 2 71.669653526023865 10.847076110150063 2 76.973698224535482 2.7319897344784074 2 84.829828021098166 20.049627960932838 2 97.114274022801553 7.3780730041201483 2 37.719476909737296 2.4507749966737098 2 52.928684996584252 24.507657587912224 2 65.302372315121644 16.022047615779488 2 77.279108507074596 15.394428709112354 2 88.089099137541254 19.824923392532433 2 92.026266545589067 12.604334665609453 2 45.064984512148847 22.660408396821673 2 54.825767871742549 10.045187251882865 2 71.40966465838261 1.4 2 76.265179490570759 6.3995392293491076 2 82.420895257527022 1.4 2 96.346403765137879 15.433640302804916 2 38.981789548036488 15.109869612364141 2 53.848493131268015 4.962098132982069 2 70.707660754645502 9.3015209267932217 2 81.342601194178883 13.795931281096193 2 85.054107519371044 10.361285723125851 2 96.040286207400698 22.741552487758611 2 41.432143069827099 6.8293240778554134 2 55.637725245483111 2.77891982