<?xml version="1.0" ?>
<VTKFile byte_order="LittleEndian" type="UnstructuredGrid" version="0.1">
<UnstructuredGrid>
<Piece NumberOfCells="0" NumberOfPoints="18">
<Points>
<DataArray NumberOfComponents="3" format="ascii" type="Float32">0 0 0 5.9000000000000004 1.5 2 15.623359213500118 1.5 2 27.215759937018163 1.5 2 33.214291366221666 1.5 2 36.213837552888137 1.5 2 42.291640786499876 1.5 2 47.705798352943567 1.5 2 53.064528689083488 1.5 2 56.061401203020523 1.5 2 62.053684982806125 1.5 2 71.145314824272873 1.5 2 74.140888213177078 1.5 2 77.135778453489635 1.5 2 80.13135184239384 1.5 2 86.727689565426132 1.5 2 92.648613809210175 1.5 2 95.579075756223602 1.5 2 </DataArray>
</Points>
<Cells>
<DataArray Name="connectivity" format="ascii" type="Int32">0</DataArray>
<DataArray Name="offsets" format="ascii" type="Int32">0</DataArray>
<DataArray Name="types" format="ascii" type="UInt8">1</DataArray>
</Cells>
<PointData>
<DataArray Name="Points" NumberOfComponents="3" format="ascii" type="Float32">0 0 0 5.9000000000000004 1.5 2 15.623359213500118 1.5 2 27.215759937018163 1.5 2 33.214291366221666 1.5 2 36.213837552888137 1.5 2 42.291640786499876 1.5 2 47.705798352943567 1.5 2 53.064528689083488 1.5 2 56.061401203020523 1.5 2 62.053684982806125 1.5 2 71.145314824272873 1.5 2 74.140888213177078 1.5 2 77.135778453489635 1.5 2 80.13135184239384 1.5 2 86.727689565426132 1.5 2 92.648613809210175 1.5 2 95.579075756223602 1.5 2 </DataArray>
<DataArray Name="forces" NumberOfComponents="3" format="ascii" type="Float32">0 0 0 0.0 0.0 0.0 0.0 0.0 0.0 -0.0004828323198786677 0.0 0.0 0.00048283231984314057 0.0 0.0 0.00078123910441973976 0.0 0.0 0.0 0.0 0.0 -0.0039519011154347736 0.00044249584319964118 0.0 -0.0021534098084088878 0.00064234652235718324 0.0 0.0021836440571689764 0.0 0.0 0.0039326300958748561 0.0 0.0 -0.0026418809695349381 0.00040558577399342515 0.0 -0.00096679665414001192 0.0 0.0 0.00096679665414001192 0.0 0.0 0.0026418809695349381 0.00040558577399342515 0.0 -0.031651628558421407 0.0 0.0 -0.020659133276552666 0.0 0.0 -0.010992495203282715 0.0 0.0 </DataArray>
<DataArray Name="radii" format="ascii" type="Float32">0 1.5 1.5 1.5 1.5 1.5 1.5 1.5 1.5 1.5 1.5 1.5 1.5 1.5 1.5 1.5 1.5 1.5 </DataArray>
</PointData>
<CellData/>
</Piece>
</UnstructuredGrid>
</VTKFile>
