<?xml version="1.0" ?>
<VTKFile byte_order="LittleEndian" type="UnstructuredGrid" version="0.1">
<UnstructuredGrid>
<Piece NumberOfCells="0" NumberOfPoints="38">
<Points>
<DataArray NumberOfComponents="3" format="ascii" type="Float32">29.228622244366786 9.4740075501354628 2 98.84506427717831 6.6903084734227098 2 27.866643898085329 2.5401603577015703 2 60.624010595481501 9.6356952710613282 2 89.942641794376755 1.1549357228216868 2 96.910540964614384 13.719139951057686 2 26.981874610539432 9.261042700128586 2 98.84506427717831 3.8442882880872218 2 30.300915677249286 7.7150542330204557 2 97.38293838833026 9.5002485226983051 2 31.623521280536174 9.2673576946498866 2 95.420116114702367 4.6061583035867697 2 25.810445019407755 5.1183650615809047 2 59.137684378514436 12.985860837269486 2 96.929730305159538 11.563868496980167 2 28.370278203634374 7.5253810056883434 2 98.84506427717831 1.1549357228216868 2 29.295170397265821 4.1367361945870291 2 98.84506427717831 12.611202047998699 2 28.433597677568685 11.462792456599978 2 98.84506427717831 5.2183125693294858 2 28.928372798731612 1.1549357228216868 2 60.99287420748766 11.755827389352447 2 90.847298492441865 2.8228248480604101 2 98.84506427717831 14.818091188022045 2 24.808037206698085 10.165662805046583 2 97.158388825673796 3.1521861415162196 2 30.237470486423415 5.8005156633884658 2 98.84506427717831 8.4256173241770309 2 30.717387042883662 11.148959358010293 2 97.084926969282051 5.0373030527013976 2 27.108096981985259 3.8381256145255955 2 58.911971830398151 10.842713555591718 2 95.487825797466854 9.9725854022540581 2 26.540738151055905 6.830623411620806 2 98.84506427717831 2.4702338066006866 2 28.078213307363303 5.5329104259849506 2 98.84506427717831 10.550114767999258 2 </DataArray>
</Points>
<Cells>
<DataArray Name="connectivity" format="ascii" type="Int32">0</DataArray>
<DataArray Name="offsets" format="ascii" type="Int32">0</DataArray>
<DataArray Name="types" format="ascii" type="UInt8">1</DataArray>
</Cells>
<PointData>
<DataArray Name="Points" NumberOfComponents="3" format="ascii" type="Float32">29.228622244366786 9.4740075501354628 2 98.84506427717831 6.6903084734227098 2 27.866643898085329 2.5401603577015703 2 60.624010595481501 9.6356952710613282 2 89.942641794376755 1.1549357228216868 2 96.910540964614384 13.719139951057686 2 26.981874610539432 9.261042700128586 2 98.84506427717831 3.8442882880872218 2 30.300915677249286 7.7150542330204557 2 97.38293838833026 9.5002485226983051 2 31.623521280536174 9.2673576946498866 2 95.420116114702367 4.6061583035867697 2 25.810445019407755 5.1183650615809047 2 59.137684378514436 12.985860837269486 2 96.929730305159538 11.563868496980167 2 28.370278203634374 7.5253810056883434 2 98.84506427717831 1.1549357228216868 2 29.295170397265821 4.1367361945870291 2 98.84506427717831 12.611202047998699 2 28.433597677568685 11.462792456599978 2 98.84506427717831 5.2183125693294858 2 28.928372798731612 1.1549357228216868 2 60.99287420748766 11.755827389352447 2 90.847298492441865 2.8228248480604101 2 98.84506427717831 14.818091188022045 2 24.808037206698085 10.165662805046583 2 97.158388825673796 3.1521861415162196 2 30.237470486423415 5.8005156633884658 2 98.84506427717831 8.4256173241770309 2 30.717387042883662 11.148959358010293 2 97.084926969282051 5.0373030527013976 2 27.108096981985259 3.8381256145255955 2 58.911971830398151 10.842713555591718 2 95.487825797466854 9.9725854022540581 2 26.540738151055905 6.830623411620806 2 98.84506427717831 2.4702338066006866 2 28.078213307363303 5.5329104259849506 2 98.84506427717831 10.550114767999258 2 </DataArray>
<DataArray Name="forces" NumberOfComponents="3" format="ascii" type="Float32">0.013812508033687568 0.17769029493535238 0.0 0.74052093499926441 0.17547471990955343 0.0 -0.046341416548363212 0.14896272821828632 0.0 -0.043405859264313118 0.21385963137153874 0.0 -0.016376313960175803 -0.59984727696875706 0.0 -0.055503583322133038 0.15024636238854974 0.0 -0.006082653509764134 0.12773007378860932 0.0 0.60199717029607913 0.081574780550313752 0.0 -0.030780494201175686 0.14132545838475119 0.0 -0.052475482348732283 0.19129651203519449 0.0 -0.098336197584204948 0.1882916086285199 0.0 -0.056789134624508741 0.030282587162875657 0.0 -0.082300455753403057 0.15999906270662689 0.0 -0.055398640240471156 0.20016495657468689 0.0 -0.012005781467412407 0.15687762656682264 0.0 -0.013156728523223596 0.14932758311127123 0.0 0.74015272357352258 -0.99849699010404414 0.0 -0.02621705183465517 0.1239087547981374 0.0 0.18761095152803337 0.16772329059455177 0.0 -0.067864690165986147 0.15877157189422084 0.0 0.56747787009454531 0.12054659320270862 0.0 -0.039423544609957728 -1.0106261423347247 0.0 0.0022688135641469251 0.25287512740357082 0.0 0.011386466509371695 0.095026440157914657 0.0 0.079180774211408525 0.14511292889553834 0.0 -0.030543329115155164 0.18862689321341802 0.0 0.0042631082297502898 0.038429617473272643 0.0 -0.061087359548278042 0.12848139788129123 0.0 0.49344255447913465 0.18337113153502371 0.0 -0.045889345450457399 0.25594250130819535 0.0 -0.022528286453064809 0.018340366028804067 0.0 -0.05597276198073517 0.18052257164400581 0.0 -0.0073964195568556601 0.20949399459540766 0.0 -0.047254117068762175 0.11174892098592304 0.0 -0.056523160283564605 0.19037567897258578 0.0 0.65696794604157838 0.043391046107533776 0.0 -0.069971616920305263 0.15537997034916581 0.0 0.54301946190204142 0.16872754994268058 0.0 </DataArray>
<DataArray Name="radii" format="ascii" type="Float32">1.1549357228216868 1.1549357228216868 1.1549357228216868 1.1549357228216868 1.1549357228216868 1.1549357228216868 1.1549357228216868 1.1549357228216868 1.1549357228216868 1.1549357228216868 1.1549357228216868 1.1549357228216868 1.1549357228216868 1.1549357228216868 1.1549357228216868 1.1549357228216868 1.1549357228216868 1.1549357228216868 1.1549357228216868 1.1549357228216868 1.1549357228216868 1.1549357228216868 1.1549357228216868 1.1549357228216868 1.1549357228216868 1.1549357228216868 1.1549357228216868 1.1549357228216868 1.1549357228216868 1.1549357228216868 1.1549357228216868 1.1549357228216868 1.1549357228216868 1.1549357228216868 1.1549357228216868 1.1549357228216868 1.1549357228216868 1.1549357228216868 </DataArray>
</PointData>
<CellData/>
</Piece>
</UnstructuredGrid>
</VTKFile>
