<?xml version="1.0" ?>
<VTKFile byte_order="LittleEndian" type="UnstructuredGrid" version="0.1">
<UnstructuredGrid>
<Piece NumberOfCells="0" NumberOfPoints="273">
<Points>
<DataArray NumberOfComponents="3" format="ascii" type="Float32">0 0 0 6.2950681365588235 4.2872284612238936 2 15.68684003552878 1.5299357228216868 2 23.822371521714018 11.317191451891402 2 32.515802596304724 1.5299357228216868 2 35.857936009642358 14.841122062506473 2 44.845826482898829 3.9320667524286659 2 44.21262527001268 12.657347908566967 2 52.565549367526394 1.5299357228216868 2 54.289768295324592 6.0708967612426514 2 61.50166726234805 7.9058465375720139 2 71.173490333198913 1.5299357228216868 2 73.712982071012789 14.333955514579786 2 75.257110313017762 9.064461617118253 2 81.823499061579554 10.896676998271428 2 87.824252414068866 5.6877451341710001 2 89.062729642305428 11.43150308249346 2 92.765783829351022 7.7379539309505185 2 4.3312605623425515 1.5299357228216868 2 14.028721121937936 1.5299357228216868 2 22.559268885991443 3.6643257234832145 2 33.07052049465949 15.884109911160753 2 37.385758217546481 3.1144113012532002 2 40.785262039522379 11.799200082788337 2 49.429902276054335 1.5299357228216868 2 50.247663464418125 12.474699557835624 2 58.608765543977036 11.098679712000468 2 62.706317071801401 3.3079214634615495 2 68.942645140261533 13.275319931130708 2 71.160679590077066 8.3602299565279719 2 80.501381649135183 1.5299357228216868 2 83.232525374805832 3.1589226890057205 2 85.33210732419353 13.420809831449873 2 92.307036322848276 1.5299357228216868 2 91.859103286788297 14.818278136510711 2 6.3034352209695408 9.2976026245546617 2 16.178116073843164 9.693912580743353 2 23.678995604047032 5.6215220345785211 2 31.816506973249734 8.7007595443522057 2 38.81312503955607 11.155123316037715 2 41.378800293822458 3.547081154267016 2 49.286323998667022 9.7912399431683017 2 52.490090121798126 3.7685698580562592 2 55.73309962456657 1.5299357228216868 2 66.207895586738488 14.433061245265822 2 65.656970663562788 3.361916330817992 2 76.111294466379007 13.887623475476856 2 78.73880119094845 15.360957058223772 2 79.089705887745623 5.9580524420990448 2 87.42461268075435 1.5299357228216868 2 86.247932346160141 10.682214074989712 2 93.844175213795197 1.5299357228216868 2 5.5816065272944675 6.6042488214048864 2 13.713578140181657 10.061502369342403 2 21.909907320274492 6.3662824213433176 2 35.293133824819549 6.2222356142661308 2 33.540544285453372 5.1912630516025127 2 46.378756156473514 1.5299357228216868 2 46.218026622847461 5.4741535570097293 2 52.541852708632568 12.21450239067363 2 57.988827882669611 5.7559896468288603 2 61.127044702675668 3.2356595078160075 2 67.033534022776379 5.3256598587414681 2 72.872080195261006 3.37822301532101 2 75.061445017349513 3.5300831620190745 2 81.385240741759617 3.5383259404715255 2 86.663901502091278 8.1255100828802735 2 88.601916883610059 7.2644418555356198 2 92.935138444519168 12.25367404587392 2 7.8241007222891437 6.9985179021508612 2 14.775085503335845 4.5800922192487938 2 20.848317986641813 8.7345072771416259 2 30.771615681160515 1.5299357228216868 2 36.260423199584487 9.9870740539456371 2 41.882530046706144 1.5299357228216868 2 42.007520070452763 13.700231129315913 2 54.104689591646178 3.7772695467044151 2 56.906156950685912 7.580620688301801 2 63.191780437520933 13.611203373855973 2 69.658698226309411 1.5299357228216868 2 73.63047134178646 9.1407635356809234 2 73.965149725677165 4.9479877032499013 2 84.144618761956821 15.838967600674973 2 89.100149041742014 4.0653892546548303 2 90.953086691176125 10.115343139957293 2 91.26770325290174 7.4111550284612457 2 1.5299357228216868 5.1416414881237307 2 11.968825507848434 1.5299357228216868 2 20.141117316794137 1.5299357228216868 2 33.370176953687057 10.34218642023332 2 36.279118537975343 4.4785156994209601 2 44.672989485540306 9.3706249115204336 2 50.315564719423179 5.6166246801299042 2 51.295242466334813 10.061736497897837 2 56.322454693441927 15.597786365192638 2 63.982936533861889 5.7596138460854904 2 69.874402970715877 10.87590069298254 2 69.164276368934253 5.6258307086059256 2 78.285919991428159 3.3848306751064676 2 81.003712111196378 8.0510247438045095 2 82.934912526662202 13.140896886947372 2 93.367614371428829 5.5968854068761571 2 93.170753043543911 17.273888550973854 2 9.1758761230824675 9.4128348496999603 2 17.864165676424399 5.4717016595253511 2 25.153312546348729 1.5299357228216868 2 30.937897737761894 3.9526232969832131 2 40.73418795101032 9.2886393051349785 2 42.9593951215057 8.2567117885628498 2 46.396490040188958 14.072993261503978 2 50.977888148116868 1.5299357228216868 2 58.877454717217908 1.5299357228216868 2 63.234191647107444 7.8888409159942228 2 68.143755581941448 1.5299357228216868 2 73.32599007372599 17.04361827003012 2 76.005586338216332 11.284430746034662 2 78.326461959809066 10.67883999940484 2 87.612273377590498 3.4679222105552214 2 87.02293524394355 15.750684631740629 2 96.837156374595693 1.5299357228216868 2 3.6327176232682281 8.6575017650958515 2 11.649173113904094 8.6847017526198265 2 19.717455582114976 6.3344487969522056 2 36.767109888583541 7.4255365947626562 2 35.95308997412549 1.5299357228216868 2 46.657683234122764 3.5673856747182442 2 47.231420862463963 9.2606993758477554 2 54.729574722767865 11.317596131233131 2 58.670028071834452 8.6322876730106657 2 60.60227528219135 5.2838213151544471 2 69.190483677292534 8.6246312958837734 2 72.866858627190695 1.5299357228216868 2 76.438356657862585 3.9840544490773158 2 79.839188978570448 3.928758294577146 2 84.570680865134932 3.5552591180342148 2 91.660166170761471 5.3212707905853307 2 96.556077492129774 7.8424382952436913 2 6.236466368393998 1.5299357228216868 2 16.46532452123785 3.5256623602388153 2 23.154390287205473 8.6070375732731836 2 32.567869193758497 3.5100892095972793 2 37.215623111250551 12.54055012942491 2 43.307034663626133 3.7670305806743332 2 44.08974076979181 15.582885494339934 2 54.150293483499276 1.5299357228216868 2 53.383846607531034 9.5736605797903973 2 62.898032143538039 10.591745586702316 2 71.167606511452007 3.7708992295244852 2 71.580232777753892 12.775450093789805 2 76.457677548182687 6.8121508837375009 2 80.365479690480853 12.788961575970253 2 86.278156411059925 5.8697883709268046 2 90.959992284709713 12.448747833719093 2 94.529827648947631 7.7630630070528746 2 1.5299357228216868 3.0942113721510811 2 12.878711959065821 3.5424177370398229 2 23.455304996361988 1.5299357228216868 2 33.003011722941729 13.241427018917559 2 37.793610020641125 1.5299357228216868 2 42.835752606263476 10.750110350555209 2 47.922873973206173 1.5299357228216868 2 51.629927357308539 14.9839310212373 2 60.694133349713688 9.6972647164516896 2 62.313408029836893 5.5735210149188221 2 68.42312053964568 16.070143865804479 2 73.083845780528009 7.2608787538280728 2 79.058242999812052 1.5299357228216868 2 82.274258305035261 5.2934280712082682 2 84.354176006646924 10.974596150218046 2 90.532412228956218 1.5299357228216868 2 90.134428414096007 16.997752060651017 2 7.5770736528333531 11.80667532887006 2 18.235912629502238 8.3444657828684701 2 24.850650555175083 3.7066735980656009 2 32.941040619044713 7.0986228320069245 2 39.172913515413406 14.185387835469292 2 40.251568408287802 5.0985105698577762 2 48.044066352133292 12.000271587226624 2 52.150715380030356 5.7118025289346539 2 55.805854073744342 3.7211964547139482 2 65.64631075676229 10.273516514185769 2 65.428259704469752 5.8393729172915751 2 76.191837530279571 16.606752790408041 2 78.160720071488143 12.825792882747784 2 78.725813845205778 7.8942824717260613 2 85.881542538452024 1.5299357228216868 2 87.433156593221653 12.811932024143053 2 95.318553309565331 3.6215371806532937 2 4.055395040837289 3.6649893157464017 2 12.768994576556739 12.505656093872489 2 20.585467763864614 4.1331110484262616 2 34.626001068405294 8.5049098166316526 2 34.708136561781252 3.4593987181768133 2 44.87667351736529 1.5299357228216868 2 45.848652433329178 7.566940091532504 2 54.171840107144796 14.124632632054583 2 57.511887519663844 3.6479514753412867 2 60.350567717927611 1.5299357228216868 2 67.582631552603999 3.6240398461338579 2 71.996303389492525 5.5621563256628379 2 76.038177998209761 1.5299357228216868 2 81.991322807744453 1.5299357228216868 2 84.955431247381114 8.3327965680481881 2 88.056150129844198 9.7222519048956801 2 94.427795511277324 9.8604095550125237 2 8.6755854933041139 4.7201112433727754 2 14.204724363221201 7.4912165491041591 2 21.37371557882301 11.559354635512221 2 29.212362709116089 3.5450910036208181 2 38.341087357742246 9.0394311369886289 2 43.372417310631569 1.5299357228216868 2 41.159356664071979 16.289288732902509 2 55.949331511397418 5.7534410832828415 2 55.036545359435571 8.3475128528742584 2 64.857630077167826 12.237648260809975 2 69.506493340361587 3.7550597972577671 2 73.996681211215432 11.767775329880198 2 74.891624832852472 6.4578581146073262 2 81.423245671192831 15.365992133829339 2 90.048693102288269 5.7557839553678249 2 92.634320960121158 9.9018477640104159 2 89.885922342368303 8.6129862462031568 2 3.5063240474359159 5.9907117760377471 2 10.149362157434364 1.5299357228216868 2 21.707008644013964 1.5299357228216868 2 34.993410685248811 12.039781957560962 2 37.998908323422185 5.5862102085997503 2 44.161036560798564 6.4386575265822872 2 48.597831848678531 3.5669683762121642 2 52.727701399803394 7.4795256707519142 2 56.564369783789772 12.798195257607045 2 64.196938457456994 3.34039415547036 2 72.003501409679572 10.358152842128186 2 70.509621198779811 6.4987354769509791 2 77.456834633476547 1.5299357228216868 2 83.08720960776192 7.2433972850178767 2 82.958657596608418 9.2242133686708598 2 93.769002828822323 3.562290890243339 2 94.216653256906028 14.601594853973443 2 10.22669195168536 6.5992720627647028 2 16.213120603097735 6.7368489479287161 2 27.00548660789633 1.5299357228216868 2 31.160068642118265 5.9102145648421107 2 41.237841879920239 7.0695312307637437 2 42.550955352417503 5.5713950878644063 2 48.885053640400479 14.88374575151755 2 50.606618929092988 3.5800180704688507 2 57.346741559975719 1.5299357228216868 2 64.608045145865248 8.6589995442254359 2 66.6764480417323 1.5299357228216868 2 71.052499759107889 15.303967282986831 2 77.138312797894002 8.8919761497444352 2 80.046597276978034 9.8912251962566362 2 88.912785011277592 1.5299357228216868 2 89.308129176053171 14.337631865700324 2 95.408429356237974 1.5299357228216868 2 2.6595652564937318 11.332427356971877 2 12.524130837952759 5.9859871687993955 2 18.641381650101597 3.3564645954241019 2 39.203073647958902 7.1580462235778235 2 34.284530922498533 1.5299357228216868 2 48.408663746909184 5.3913272902882747 2 45.912054019605797 11.189214178367763 2 56.55610172974707 10.035243305690576 2 59.670599352152429 6.8726874792168262 2 59.185136777315705 3.8851594926742092 2 67.863258337180042 7.2086283024615243 2 74.481733831826602 1.5299357228216868 2 77.426582420963456 5.3570326282873388 2 80.786968732333264 6.1185091237045128 2 85.997458437514666 3.8200821216536136 2 92.093795168346716 3.5640712700973429 2 96.306655330928407 9.572217185667089 2 </DataArray>
</Points>
<Cells>
<DataArray Name="connectivity" format="ascii" type="Int32">0</DataArray>
<DataArray Name="offsets" format="ascii" type="Int32">0</DataArray>
<DataArray Name="types" format="ascii" type="UInt8">1</DataArray>
</Cells>
<PointData>
<DataArray Name="Points" NumberOfComponents="3" format="ascii" type="Float32">0 0 0 6.2950681365588235 4.2872284612238936 2 15.68684003552878 1.5299357228216868 2 23.822371521714018 11.317191451891402 2 32.515802596304724 1.5299357228216868 2 35.857936009642358 14.841122062506473 2 44.845826482898829 3.9320667524286659 2 44.21262527001268 12.657347908566967 2 52.565549367526394 1.5299357228216868 2 54.289768295324592 6.0708967612426514 2 61.50166726234805 7.9058465375720139 2 71.173490333198913 1.5299357228216868 2 73.712982071012789 14.333955514579786 2 75.257110313017762 9.064461617118253 2 81.823499061579554 10.896676998271428 2 87.824252414068866 5.6877451341710001 2 89.062729642305428 11.43150308249346 2 92.765783829351022 7.7379539309505185 2 4.3312605623425515 1.5299357228216868 2 14.028721121937936 1.5299357228216868 2 22.559268885991443 3.6643257234832145 2 33.07052049465949 15.884109911160753 2 37.385758217546481 3.1144113012532002 2 40.785262039522379 11.799200082788337 2 49.429902276054335 1.5299357228216868 2 50.247663464418125 12.474699557835624 2 58.608765543977036 11.098679712000468 2 62.706317071801401 3.3079214634615495 2 68.942645140261533 13.275319931130708 2 71.160679590077066 8.3602299565279719 2 80.501381649135183 1.5299357228216868 2 83.232525374805832 3.1589226890057205 2 85.33210732419353 13.420809831449873 2 92.307036322848276 1.5299357228216868 2 91.859103286788297 14.818278136510711 2 6.3034352209695408 9.2976026245546617 2 16.178116073843164 9.693912580743353 2 23.678995604047032 5.6215220345785211 2 31.816506973249734 8.7007595443522057 2 38.81312503955607 11.155123316037715 2 41.378800293822458 3.547081154267016 2 49.286323998667022 9.7912399431683017 2 52.490090121798126 3.7685698580562592 2 55.73309962456657 1.5299357228216868 2 66.207895586738488 14.433061245265822 2 65.656970663562788 3.361916330817992 2 76.111294466379007 13.887623475476856 2 78.73880119094845 15.360957058223772 2 79.089705887745623 5.9580524420990448 2 87.42461268075435 1.5299357228216868 2 86.247932346160141 10.682214074989712 2 93.844175213795197 1.5299357228216868 2 5.5816065272944675 6.6042488214048864 2 13.713578140181657 10.061502369342403 2 21.909907320274492 6.3662824213433176 2 35.293133824819549 6.2222356142661308 2 33.540544285453372 5.1912630516025127 2 46.378756156473514 1.5299357228216868 2 46.218026622847461 5.4741535570097293 2 52.541852708632568 12.21450239067363 2 57.988827882669611 5.7559896468288603 2 61.127044702675668 3.2356595078160075 2 67.033534022776379 5.3256598587414681 2 72.872080195261006 3.37822301532101 2 75.061445017349513 3.5300831620190745 2 81.385240741759617 3.5383259404715255 2 86.663901502091278 8.1255100828802735 2 88.601916883610059 7.2644418555356198 2 92.935138444519168 12.25367404587392 2 7.8241007222891437 6.9985179021508612 2 14.775085503335845 4.5800922192487938 2 20.848317986641813 8.7345072771416259 2 30.771615681160515 1.5299357228216868 2 36.260423199584487 9.9870740539456371 2 41.882530046706144 1.5299357228216868 2 42.007520070452763 13.700231129315913 2 54.104689591646178 3.7772695467044151 2 56.906156950685912 7.580620688301801 2 63.191780437520933 13.611203373855973 2 69.658698226309411 1.5299357228216868 2 73.63047134178646 9.1407635356809234 2 73.965149725677165 4.9479877032499013 2 84.144618761956821 15.838967600674973 2 89.100149041742014 4.0653892546548303 2 90.953086691176125 10.115343139957293 2 91.26770325290174 7.4111550284612457 2 1.5299357228216868 5.1416414881237307 2 11.968825507848434 1.5299357228216868 2 20.141117316794137 1.5299357228216868 2 33.370176953687057 10.34218642023332 2 36.279118537975343 4.4785156994209601 2 44.672989485540306 9.3706249115204336 2 50.315564719423179 5.6166246801299042 2 51.295242466334813 10.061736497897837 2 56.322454693441927 15.597786365192638 2 63.982936533861889 5.7596138460854904 2 69.874402970715877 10.87590069298254 2 69.164276368934253 5.6258307086059256 2 78.285919991428159 3.3848306751064676 2 81.003712111196378 8.0510247438045095 2 82.934912526662202 13.140896886947372 2 93.367614371428829 5.5968854068761571 2 93.170753043543911 17.273888550973854 2 9.1758761230824675 9.4128348496999603 2 17.864165676424399 5.4717016595253511 2 25.153312546348729 1.5299357228216868 2 30.937897737761894 3.9526232969832131 2 40.73418795101032 9.2886393051349785 2 42.9593951215057 8.2567117885628498 2 46.396490040188958 14.072993261503978 2 50.977888148116868 1.5299357228216868 2 58.877454717217908 1.5299357228216868 2 63.234191647107444 7.8888409159942228 2 68.143755581941448 1.5299357228216868 2 73.32599007372599 17.04361827003012 2 76.005586338216332 11.284430746034662 2 78.326461959809066 10.67883999940484 2 87.612273377590498 3.4679222105552214 2 87.02293524394355 15.750684631740629 2 96.837156374595693 1.5299357228216868 2 3.6327176232682281 8.6575017650958515 2 11.649173113904094 8.6847017526198265 2 19.717455582114976 6.3344487969522056 2 36.767109888583541 7.4255365947626562 2 35.95308997412549 1.5299357228216868 2 46.657683234122764 3.5673856747182442 2 47.231420862463963 9.2606993758477554 2 54.729574722767865 11.317596131233131 2 58.670028071834452 8.6322876730106657 2 60.60227528219135 5.2838213151544471 2 69.190483677292534 8.6246312958837734 2 72.866858627190695 1.5299357228216868 2 76.438356657862585 3.9840544490773158 2 79.839188978570448 3.928758294577146 2 84.570680865134932 3.5552591180342148 2 91.660166170761471 5.3212707905853307 2 96.556077492129774 7.8424382952436913 2 6.236466368393998 1.5299357228216868 2 16.46532452123785 3.5256623602388153 2 23.154390287205473 8.6070375732731836 2 32.567869193758497 3.5100892095972793 2 37.215623111250551 12.54055012942491 2 43.307034663626133 3.7670305806743332 2 44.08974076979181 15.582885494339934 2 54.150293483499276 1.5299357228216868 2 53.383846607531034 9.5736605797903973 2 62.898032143538039 10.591745586702316 2 71.167606511452007 3.7708992295244852 2 71.580232777753892 12.775450093789805 2 76.457677548182687 6.8121508837375009 2 80.365479690480853 12.788961575970253 2 86.278156411059925 5.8697883709268046 2 90.959992284709713 12.448747833719093 2 94.529827648947631 7.7630630070528746 2 1.5299357228216868 3.0942113721510811 2 12.878711959065821 3.5424177370398229 2 23.455304996361988 1.5299357228216868 2 33.003011722941729 13.241427018917559 2 37.793610020641125 1.5299357228216868 2 42.835752606263476 10.750110350555209 2 47.922873973206173 1.5299357228216868 2 51.629927357308539 14.9839310212373 2 60.694133349713688 9.6972647164516896 2 62.313408029836893 5.5735210149188221 2 68.42312053964568 16.070143865804479 2 73.083845780528009 7.2608787538280728 2 79.058242999812052 1.5299357228216868 2 82.274258305035261 5.2934280712082682 2 84.354176006646924 10.974596150218046 2 90.532412228956218 1.5299357228216868 2 90.134428414096007 16.997752060651017 2 7.5770736528333531 11.80667532887006 2 18.235912629502238 8.3444657828684701 2 24.850650555175083 3.7066735980656009 2 32.941040619044713 7.0986228320069245 2 39.172913515413406 14.185387835469292 2 40.251568408287802 5.0985105698577762 2 48.044066352133292 12.000271587226624 2 52.150715380030356 5.7118025289346539 2 55.805854073744342 3.7211964547139482 2 65.64631075676229 10.273516514185769 2 65.428259704469752 5.8393729172915751 2 76.191837530279571 16.606752790408041 2 78.160720071488143 12.825792882747784 2 78.725813845205778 7.8942824717260613 2 85.881542538452024 1.5299357228216868 2 87.433156593221653 12.811932024143053 2 95.318553309565331 3.6215371806532937 2 4.055395040837289 3.6649893157464017 2 12.768994576556739 12.505656093872489 2 20.585467763864614 4.1331110484262616 2 34.626001068405294 8.5049098166316526 2 34.708136561781252 3.4593987181768133 2 44.87667351736529 1.5299357228216868 2 45.848652433329178 7.566940091532504 2 54.171840107144796 14.124632632054583 2 57.511887519663844 3.6479514753412867 2 60.350567717927611 1.5299357228216868 2 67.582631552603999 3.6240398461338579 2 71.996303389492525 5.5621563256628379 2 76.038177998209761 1.5299357228216868 2 81.991322807744453 1.5299357228216868 2 84.955431247381114 8.3327965680481881 2 88.056150129844198 9.7222519048956801 2 94.427795511277324 9.8604095550125237 2 8.6755854933041139 4.7201112433727754 2 14.204724363221201 7.4912165491041591 2 21.37371557882301 11.559354635512221 2 29.212362709116089 3.5450910036208181 2 38.341087357742246 9.0394311369886289 2 43.372417310631569 1.5299357228216868 2 41.159356664071979 16.289288732902509 2 55.949331511397418 5.7534410832828415 2 55.036545359435571 8.3475128528742584 2 64.857630077167826 12.237648260809975 2 69.506493340361587 3.7550597972577671 2 73.996681211215432 11.767775329880198 2 74.891624832852472 6.4578581146073262 2 81.423245671192831 15.365992133829339 2 90.048693102288269 5.7557839553678249 2 92.634320960121158 9.9018477640104159 2 89.885922342368303 8.6129862462031568 2 3.5063240474359159 5.9907117760377471 2 10.149362157434364 1.5299357228216868 2 21.707008644013964 1.5299357228216868 2 34.993410685248811 12.039781957560962 2 37.998908323422185 5.5862102085997503 2 44.161036560798564 6.4386575265822872 2 48.597831848678531 3.5669683762121642 2 52.727701399803394 7.4795256707519142 2 56.564369783789772 12.798195257607045 2 64.196938457456994 3.34039415547036 2 72.003501409679572 10.358152842128186 2 70.509621198779811 6.4987354769509791 2 77.456834633476547 1.5299357228216868 2 83.08720960776192 7.2433972850178767 2 82.958657596608418 9.2242133686708598 2 93.769002828822323 3.562290890243339 2 94.216653256906028 14.601594853973443 2 10.22669195168536 6.5992720627647028 2 16.213120603097735 6.7368489479287161 2 27.00548660789633 1.5299357228216868 2 31.160068642118265 5.9102145648421107 2 41.237841879920239 7.0695312307637437 2 42.550955352417503 5.5713950878644063 2 48.885053640400479 14.88374575151755 2 50.606618929092988 3.5800180704688507 2 57.346741559975719 1.5299357228216868 2 64.608045145865248 8.6589995442254359 2 66.6764480417323 1.5299357228216868 2 71.052499759107889 15.303967282986831 2 77.138312797894002 8.8919761497444352 2 80.046597276978034 9.8912251962566362 2 88.912785011277592 1.5299357228216868 2 89.308129176053171 14.337631865700324 2 95.408429356237974 1.5299357228216868 2 2.6595652564937318 11.332427356971877 2 12.524130837952759 5.9859871687993955 2 18.641381650101597 3.3564645954241019 2 39.203073647958902 7.1580462235778235 2 34.284530922498533 1.5299357228216868 2 48.408663746909184 5.3913272902882747 2 45.912054019605797 11.189214178367763 2 56.55610172974707 10.035243305690576 2 59.670599352152429 6.8726874792168262 2 59.185136777315705 3.8851594926742092 2 67.863258337180042 7.2086283024615243 2 74.481733831826602 1.5299357228216868 2 77.426582420963456 5.3570326282873388 2 80.786968732333264 6.1185091237045128 2 85.997458437514666 3.8200821216536136 2 92.093795168346716 3.5640712700973429 2 96.306655330928407 9.572217185667089 2 </DataArray>