<?xml version="1.0" ?>
<VTKFile byte_order="LittleEndian" type="UnstructuredGrid" version="0.1">
<UnstructuredGrid>
<Piece NumberOfCells="0" NumberOfPoints="4">
<Points>
<DataArray NumberOfComponents="3" format="ascii" type="Float32">12.208690501475573 2.5168287554836226 2 15.397331408520404 1.1 2 10.623228748572954 1.1 2 14.308977702428322 2.9291739046140961 2 </DataArray>
</Points>
<Cells>
<DataArray Name="connectivity" format="ascii" type="Int32">0</DataArray>
<DataArray Name="offsets" format="ascii" type="Int32">0</DataArray>
<DataArray Name="types" format="ascii" type="UInt8">1</DataArray>
</Cells>
<PointData>
<DataArray Name="Points" NumberOfComponents="3" format="ascii" type="Float32">12.208690501475573 2.5168287554836226 2 15.397331408520404 1.1 2 10.623228748572954 1.1 2 14.308977702428322 2.9291739046140961 2 </DataArray>
<DataArray Name="forces" NumberOfComponents="3" format="ascii" type="Float32">-0.0037714460935359823 0.038422127638379933 0.0 0.037296875863757281 -0.062674025077435219 0.0 -0.056010866198641263 -0.050124213373709349 0.0 0.022485436428419964 0.074376110812764629 0.0 </DataArray>
<DataArray Name="radii" format="ascii" type="Float32">1.1 1.1 1.1 1.1 </DataArray>
</PointData>
<CellData/>
</Piece>
</UnstructuredGrid>
</VTKFile>
