<?xml version="1.0" ?>
<VTKFile byte_order="LittleEndian" type="UnstructuredGrid" version="0.1">
<UnstructuredGrid>
<Piece NumberOfCells="0" NumberOfPoints="8">
<Points>
<DataArray NumberOfComponents="3" format="ascii" type="Float32">1.4500000000000004 1.4577846216572927 2 11.112570653065273 1.4500000000000004 2 19.004969195120328 1.4500000000000004 2 38.734107741106733 1.4839577166194906 2 49.606656609538085 3.735696406784609 2 65.441576410181639 1.4500000000000004 2 67.47152148509899 3.5274017966748947 2 83.665852140986345 1.6784159490803763 2 </DataArray>
</Points>
<Cells>
<DataArray Name="connectivity" format="ascii" type="Int32">0</DataArray>
<DataArray Name="offsets" format="ascii" type="Int32">0</DataArray>
<DataArray Name="types" format="ascii" type="UInt8">1</DataArray>
</Cells>
<PointData>
<DataArray Name="Points" NumberOfComponents="3" format="ascii" type="Float32">1.4500000000000004 1.4577846216572927 2 11.112570653065273 1.4500000000000004 2 19.004969195120328 1.4500000000000004 2 38.734107741106733 1.4839577166194906 2 49.606656609538085 3.735696406784609 2 65.441576410181639 1.4500000000000004 2 67.47152148509899 3.5274017966748947 2 83.665852140986345 1.6784159490803763 2 </DataArray>
<DataArray Name="forces" NumberOfComponents="3" format="ascii" type="Float32">-0.039132446898764175 0.0028036232722122943 0.0 -0.002865595902216982 -0.0016521396947773565 0.0 -0.012053159221670523 0.0050620756054436389 0.0 -0.03138154006121191 0.01754538038633055 0.0 0.022304998713049091 0.031369566099537574 0.0 0.024065660907975996 -0.009768773434759858 0.0 0.002853091262185364 0.030426509117607359 0.0 0.0075201854977618998 0.030911649023510214 0.0 </DataArray>
<DataArray Name="radii" format="ascii" type="Float32">1.4500000000000004 1.4500000000000004 1.4500000000000004 1.4500000000000004 1.4500000000000004 1.4500000000000004 1.4500000000000004 1.4500000000000004 </DataArray>
</PointData>
<CellData/>
</Piece>
</UnstructuredGrid>
</VTKFile>
