<?xml version="1.0" ?>
<VTKFile byte_order="LittleEndian" type="UnstructuredGrid" version="0.1">
<UnstructuredGrid>
<Piece NumberOfCells="0" NumberOfPoints="8">
<Points>
<DataArray NumberOfComponents="3" format="ascii" type="Float32">31.173561817933003 3.9333031601519952 2 58.48634594880297 1.44055078897 2 89.241483533797066 4.0301020426664405 2 98.55944921103 1.44055078897 2 29.743066639288003 1.44055078897 2 59.91369137789065 3.9340485529862339 2 90.492555256325787 1.44055078897 2 98.55944921103 4.3128755054266197 2 </DataArray>
</Points>
<Cells>
<DataArray Name="connectivity" format="ascii" type="Int32">0</DataArray>
<DataArray Name="offsets" format="ascii" type="Int32">0</DataArray>
<DataArray Name="types" format="ascii" type="UInt8">1</DataArray>
</Cells>
<PointData>
<DataArray Name="Points" NumberOfComponents="3" format="ascii" type="Float32">31.173561817933003 3.9333031601519952 2 58.48634594880297 1.44055078897 2 89.241483533797066 4.0301020426664405 2 98.55944921103 1.44055078897 2 29.743066639288003 1.44055078897 2 59.91369137789065 3.9340485529862339 2 90.492555256325787 1.44055078897 2 98.55944921103 4.3128755054266197 2 </DataArray>
<DataArray Name="forces" NumberOfComponents="3" format="ascii" type="Float32">0.0035809864372170199 0.0062513188511789108 0.0 0.0048892723439433357 -0.0067469062681725167 0.0 -0.0044406914783876143 -6.2788548292166209e-05 0.0 0.22472842403567395 -0.0090452054382033076 0.0 -0.00090472427725485707 -0.010744290334387388 0.0 0.0045751110668391442 0.0080973402392449934 0.0 -0.048029204486013555 0.0 0.0 0.0 0.0090452054382033076 0.0 </DataArray>
<DataArray Name="radii" format="ascii" type="Float32">1.44055078897 1.44055078897 1.44055078897 1.44055078897 1.44055078897 1.44055078897 1.44055078897 1.44055078897 </DataArray>
</PointData>
<CellData/>
</Piece>
</UnstructuredGrid>
</VTKFile>
