<?xml version="1.0" ?>
<VTKFile byte_order="LittleEndian" type="UnstructuredGrid" version="0.1">
<UnstructuredGrid>
<Piece NumberOfCells="0" NumberOfPoints="69">
<Points>
<DataArray NumberOfComponents="3" format="ascii" type="Float32">0 0 0 8.4150886243875984 1.268365918906393 2 16.324693851704058 1.268365918906393 2 26.5777477263393 4.188597913647782 2 31.413996660920031 1.268365918906393 2 36.89266826273559 6.3632212868917692 2 43.637933588488643 1.268365918906393 2 45.141100877965883 5.4699702557588292 2 53.297711470354891 1.268365918906393 2 54.582690130545231 3.4940547365903809 2 62.473873382664529 4.943969019275996 2 71.391696667422565 1.268365918906393 2 73.978192538975676 5.7220788583539415 2 75.246794082189382 3.546186214695187 2 79.790640955584863 5.1402032804962241 2 88.497322037980027 2.1078527483532281 2 92.90780604376765 5.6629888658813154 2 94.79024779891617 3.5854972830307137 2 4.1263021009723433 1.268365918906393 2 13.81026905017897 1.268365918906393 2 24.145870777603619 1.3518872291772139 2 34.086185158177393 5.824699812777526 2 36.203976227140721 1.268365918906393 2 43.259891074481395 3.7677475343044309 2 48.415247483441476 1.268365918906393 2 52.219620903050796 4.3505734267502119 2 57.751870087953954 5.9681406981859002 2 62.936589675881926 2.4671008936949281 2 71.448190233241903 5.7315229867019761 2 72.711445679515123 3.5189010269222138 2 78.703918171664441 1.268365918906393 2 81.850541618544256 3.6804616432782802 2 84.198407234174041 4.6144109397953201 2 93.722334743498962 1.268365918906393 2 94.519516812792887 7.5797517011344446 2 8.2658448618785272 4.1028442758301953 2 15.706467941276735 3.7213817898223729 2 26.581454553567252 1.6658757389063825 2 32.868644170726867 3.6031253923673443 2 37.93672458860307 4.0557747602512126 2 41.31967307257343 1.268365918906393 2 47.459506029848335 6.5276355025370174 2 50.961060439664365 1.268365918906393 2 55.852610190192216 1.268365918906393 2 64.850327950598938 4.1407334905886524 2 68.904868404848841 1.268365918906393 2 74.708263407337341 8.1426145124241742 2 76.520867938934458 5.8046088071440956 2 77.774913263707276 3.6094238053995489 2 86.228251309111371 1.268365918906393 2 90.543072691262111 6.5592814479138486 2 96.208908121159027 1.268365918906393 2 6.2588806434117377 2.5777057493660616 2 12.788314809268588 3.5874828859836398 2 21.66944142092219 1.268365918906393 2 35.427456818476429 3.6769021952822278 2 33.814682706045168 1.268365918906393 2 46.120087028012357 1.268365918906393 2 46.888102384028684 3.6410268628550959 2 55.218703823246017 5.9294092377192706 2 57.113718788346681 3.513297545492589 2 60.771189754087303 1.268365918906393 2 70.183640134692666 3.5333565554541 2 73.85313518666355 1.268365918906393 2 76.29165916164213 1.268365918906393 2 81.108038495420672 1.268365918906393 2 86.583636045632673 3.7709853498530554 2 92.28675545840629 3.271861644384634 2 96.203891077964926 5.6920869988976932 2 </DataArray>
</Points>
<Cells>
<DataArray Name="connectivity" format="ascii" type="Int32">0</DataArray>
<DataArray Name="offsets" format="ascii" type="Int32">0</DataArray>
<DataArray Name="types" format="ascii" type="UInt8">1</DataArray>
</Cells>
<PointData>
<DataArray Name="Points" NumberOfComponents="3" format="ascii" type="Float32">0 0 0 8.4150886243875984 1.268365918906393 2 16.324693851704058 1.268365918906393 2 26.5777477263393 4.188597913647782 2 31.413996660920031 1.268365918906393 2 36.89266826273559 6.3632212868917692 2 43.637933588488643 1.268365918906393 2 45.141100877965883 5.4699702557588292 2 53.297711470354891 1.268365918906393 2 54.582690130545231 3.4940547365903809 2 62.473873382664529 4.943969019275996 2 71.391696667422565 1.268365918906393 2 73.978192538975676 5.7220788583539415 2 75.246794082189382 3.546186214695187 2 79.790640955584863 5.1402032804962241 2 88.497322037980027 2.1078527483532281 2 92.90780604376765 5.6629888658813154 2 94.79024779891617 3.5854972830307137 2 4.1263021009723433 1.268365918906393 2 13.81026905017897 1.268365918906393 2 24.145870777603619 1.3518872291772139 2 34.086185158177393 5.824699812777526 2 36.203976227140721 1.268365918906393 2 43.259891074481395 3.7677475343044309 2 48.415247483441476 1.268365918906393 2 52.219620903050796 4.3505734267502119 2 57.751870087953954 5.9681406981859002 2 62.936589675881926 2.4671008936949281 2 71.448190233241903 5.7315229867019761 2 72.711445679515123 3.5189010269222138 2 78.703918171664441 1.268365918906393 2 81.850541618544256 3.6804616432782802 2 84.198407234174041 4.6144109397953201 2 93.722334743498962 1.268365918906393 2 94.519516812792887 7.5797517011344446 2 8.2658448618785272 4.1028442758301953 2 15.706467941276735 3.7213817898223729 2 26.581454553567252 1.6658757389063825 2 32.868644170726867 3.6031253923673443 2 37.93672458860307 4.0557747602512126 2 41.31967307257343 1.268365918906393 2 47.459506029848335 6.5276355025370174 2 50.961060439664365 1.268365918906393 2 55.852610190192216 1.268365918906393 2 64.850327950598938 4.1407334905886524 2 68.904868404848841 1.268365918906393 2 74.708263407337341 8.1426145124241742 2 76.520867938934458 5.8046088071440956 2 77.774913263707276 3.6094238053995489 2 86.228251309111371 1.268365918906393 2 90.543072691262111 6.5592814479138486 2 96.208908121159027 1.268365918906393 2 6.2588806434117377 2.5777057493660616 2 12.788314809268588 3.5874828859836398 2 21.66944142092219 1.268365918906393 2 35.427456818476429 3.6769021952822278 2 33.814682706045168 1.268365918906393 2 46.120087028012357 1.268365918906393 2 46.888102384028684 3.6410268628550959 2 55.218703823246017 5.9294092377192706 2 57.113718788346681 3.513297545492589 2 60.771189754087303 1.268365918906393 2 70.183640134692666 3.5333565554541 2 73.85313518666355 1.268365918906393 2 76.29165916164213 1.268365918906393 2 81.108038495420672 1.268365918906393 2 86.583636045632673 3.7709853498530554 2 92.28675545840629 3.271861644384634 2 96.203891077964926 5.6920869988976932 2 </DataArray>
<DataArray Name="forces" NumberOfComponents="3" format="ascii" type="Float32">0 0 0 -0.00036701335671458953 -0.0085829880483014095 0.0 -0.01105404210202878 -0.0096247791916580002 0.0 -0.0038758627352797319 0.011375122697721885 0.0 -0.020414271399029335 -0.02494791770663787 0.0 -0.0040688799175764567 0.0090031121418797828 0.0 -0.086759441482463728 0.0 0.0 -0.0057413213916017733 0.0085582310782183323 0.0 -0.11624807062876094 -0.013533974123026394 0.0 -0.003669493975908298 0.027891074182506144 0.0 0.0042199581039971748 0.0070330872540766368 0.0 -0.023215420271270659 0.0 0.0 -0.0069490491893811554 0.01144424214571026 0.0 9.6997641006334526e-05 0.008791534944322766 0.0 -0.0052707081399214692 0.01258148555349538 0.0 0.01704488715588752 0.011885067585817699 0.0 0.0032234103695408071 0.037935415123560204 0.0 0.007531865117307867 -0.0013481654303961301 0.0 0.0062751442592701087 -0.02284721456857286 0.0 -0.0047455013453584728 -0.0013333885680347436 0.0 -0.013346991215823514 -0.0070518907913820839 0.0 -0.0001514355886118614 0.0055376174157694335 0.0 0.0098328570420165018 -0.022143296511368826 0.0 -0.0013352587966064921 -0.00120197690197864 0.0 -0.14191002582274714 -0.034172533642832605 0.0 -0.0043586198799518486 0.010193530759061159 0.0 0.0027684577783565097 0.0096016816361289056 0.0 0.0079986927796163836 0.010951533339333514 0.0 -0.0061841708703770882 4.0926317884664163e-05 0.0 -0.0079463420497646667 0.012845713056786114 0.0 -0.0054610659020145058 -0.018669760576570864 0.0 -0.0027137105420893624 0.011309781363845896 0.0 0.0014184583627550578 0.0075270927257920688 0.0 -0.012183075956132688 -0.061832154531817028 0.0 0.020366921775243758 0.029896314818803421 0.0 0.014053624064531849 0.010735309148255098 0.0 -0.0019120637478449117 0.0075087002663268062 0.0 -0.023547013514251383 0.011847060489880129 0.0 -0.0046970766697170237 0.0083369156057621005 0.0 0.0012548477107005946 0.001457858329907518 0.0 0.068504380432655415 -0.015484233727162625 0.0 0.0 0.0 0.0 0.15615731787976728 0.0 0.0 0.1220893466493761 -0.023474715130686611 0.0 -0.011437753310265687 0.00099715624424246904 0.0 -0.029338763806620864 -0.037780654834596299 0.0 0.0021918309026534156 0.0073336758844705389 0.0 -0.0038437238399552341 0.0067252426597854079 0.0 -0.0051899854723662618 0.007485832774035894 0.0 0.0152053940658286 -0.069486353885055807 0.0 -0.0018842767484830575 0.027892877728607955 0.0 -0.0010381656511664755 -0.083576410693729938 0.0 0.0060211917798663056 0.017006377735027795 0.0 0.0024934235032317799 0.003870420724191183 0.0 -0.018820108122528142 -0.005221414727499451 0.0 -0.0018824765335744321 0.0069085300495877336 0.0 -0.0091709406160609928 -0.017672860549321327 0.0 0.14938874713066477 -0.0037762206484848906 0.0 -0.012883380412153846 -0.0041594406228726497 0.0 -0.012741690212353256 0.0018441604096528985 0.0 0.013747050141884197 -0.010052132584290744 0.0 0.062205900331890357 -0.015920279918115423 0.0 -0.0020540130685369933 7.1802492531867506e-05 0.0 -0.020487441310764562 -0.012965960423855668 0.0 -0.011179829146347617 -0.027647041223441571 0.0 0.0076588865615901513 -0.034587642055887387 0.0 0.0052375097559557464 0.0040981320772358254 0.0 0.010384182799632005 0.029061563371655857 0.0 -0.0054167887781847905 0.013671931703331339 0.0 </DataArray>
<DataArray Name="radii" format="ascii" type="Float32">0 1.268365918906393 1.268365918906393 1.268365918906393 1.268365918906393 1.268365918906393 1.268365918906393 1.268365918906393 1.268365918906393 1.268365918906393 1.268365918906393 1.268365918906393 1.268365918906393 1.268365918906393 1.268365918906393 1.268365918906393 1.268365918906393 1.268365918906393 1.268365918906393 1.268365918906393 1.268365918906393 1.268365918906393 1.268365918906393 1.268365918906393 1.268365918906393 1.268365918906393 1.268365918906393 1.268365918906393 1.268365918906393 1.268365918906393 1.268365918906393 1.268365918906393 1.268365918906393 1.268365918906393 1.268365918906393 1.268365918906393 1.268365918906393 1.268365918906393 1.268365918906393 1.268365918906393 1.268365918906393 1.268365918906393 1.268365918906393 1.268365918906393 1.268365918906393 1.268365918906393 1.268365918906393 1.268365918906393 1.268365918906393 1.268365918906393 1.268365918906393 1.268365918906393 1.268365918906393 1.268365918906393 1.268365918906393 1.268365918906393 1.268365918906393 1.268365918906393 1.268365918906393 1.268365918906393 1.268365918906393 1.268365918906393 1.268365918906393 1.268365918906393 1.268365918906393 1.268365918906393 1.268365918906393 1.268365918906393 1.268365918906393 </DataArray>
</PointData>
<CellData/>
</Piece>
</UnstructuredGrid>
</VTKFile>
