<?xml version="1.0" ?>
<VTKFile byte_order="LittleEndian" type="UnstructuredGrid" version="0.1">
<UnstructuredGrid>
<Piece NumberOfCells="0" NumberOfPoints="193">
<Points>
<DataArray NumberOfComponents="3" format="ascii" type="Float32">0 0 0 31.645224985785248 11.371109177011743 2 33.88187467915975 17.45171804215504 2 62.961628709618644 1.2 2 68.084954843709269 6.8951041537275248 2 91.209152566927642 4.221586386535118 2 98.8 1.2 2 33.650232444770239 1.2 2 36.124211596694934 2.6014045652449265 2 61.511916779669676 4.7704051325627175 2 66.471744447124181 9.8083962843165295 2 98.45301202209447 14.971897730700027 2 94.006561782362084 6.8620695782458601 2 36.328949913667628 8.1063161009927995 2 39.416942703933024 1.2 2 63.262047280901498 9.7922001809001937 2 65.665682383689017 3.446482523057278 2 90.712582156644373 7.1007274683529742 2 97.473205368407434 7.3371433541762601 2 30.459697984632232 10.358311791630381 2 34.164871081234907 5.8801793305911456 2 61.311428287897016 9.126992922487009 2 63.867125214023474 13.763958899720899 2 94.130582222773384 15.744404790419871 2 92.419464647431582 5.8166618497418359 2 35.920792341212142 9.4671159671855243 2 34.201065553134626 15.320631018765889 2 61.130645514900088 2.9379433887853699 2 66.18277807890037 1.2 2 89.445597999335504 5.2730901405149879 2 98.8 7.4428305963742369 2 32.621986794423044 5.8799246088418329 2 36.727137024767693 4.79962136108721 2 58.219087034532755 1.2 2 66.014238865783113 5.102767337669035 2 94.117174819938384 9.9155195639436737 2 98.8 9.2051862863046576 2 37.621208222594028 5.7325128053713659 2 41.555126998795252 3.500338239807077 2 64.641018153444676 17.583661232626909 2 63.316668966216845 5.480339795616243 2 90.157067562724109 14.220944283705707 2 95.304906020735942 1.2 2 28.563165065897564 7.0653656506021472 2 34.796991818314353 1.2 2 61.494157574108009 6.8643535212632338 2 63.868616155457161 8.7368654924393745 2 90.505507098292213 16.352863629055879 2 93.839913670220596 2.9692514173749691 2 33.722476819533348 11.568669982521103 2 36.58686392189378 14.915876505966752 2 63.034889393099427 2.8697867671240016 2 67.715003921831965 4.7231943824999885 2 91.857332281430544 1.2 2 96.468852985323963 1.2 2 31.193350538227389 1.2 2 36.863821550290062 3.7392321512427036 2 59.676863795663152 4.3873128211940173 2 66.68664659535375 7.4622668750781065 2 97.255883670006199 10.753237173867054 2 94.251274943810245 8.3315135850841333 2 37.166349295571727 10.156556365886052 2 38.336075101294796 1.2 2 62.251776152703229 15.13714891738427 2 63.985843455652379 1.2 2 92.50892370451281 8.5285135419403026 2 97.806921774382488 5.1876869374113541 2 31.120520056272685 9.0542147322903013 2 32.512301676629718 2.7368859702420938 2 62.058194871506402 12.526970001180668 2 65.184481721544557 11.166533790672743 2 92.105928808618913 15.156998847345779 2 92.601150464815348 3.6197357929644167 2 33.895315700028441 7.1411459216871158 2 36.567263259733103 11.462349336776084 2 59.397436542749645 1.2 2 67.867391965514855 2.8180015436017021 2 88.404590762116754 7.9320319269818569 2 97.58236260488755 3.2041572564656451 2 30.113451860840701 7.4579911932191933 2 34.809167003385816 7.899379966619632 2 58.598495639697447 3.279055566581969 2 64.914708465491813 6.9345045377621499 2 94.600215130053599 12.124281992798238 2 95.67474620186411 8.4103045587140066 2 38.459174526175104 4.3513599708778683 2 42.014604211521842 5.3093748857412093 2 62.529536233533022 17.900543206453939 2 64.821732398424942 5.2004586478277135 2 93.289330434483404 11.448113670566514 2 96.5177760529523 3.1327378551636733 2 29.417882855046201 5.631347710446736 2 35.098066209067419 3.1052967905836728 2 63.190611120330608 4.3289659992523397 2 62.866793521261016 7.4298437054648323 2 88.665128006132974 15.249786803167188 2 93.018060571588052 1.2 2 32.644832211486062 13.012230360570642 2 35.92742457686181 16.539112753094322 2 62.131642920754835 1.7547409338376438 2 69.411381786080753 6.2888409498052136 2 90.097677776443447 3.5994665209953105 2 98.8 2.4834865181797126 2 33.880580762432643 2.654783410133787 2 37.152716096126674 1.2 2 60.390964321276861 5.1960028925722614 2 66.350720876390852 8.5199874762021679 2 98.113372489919882 12.963213088039961 2 94.997023825393768 6.1842649418798015 2 37.745241443672001 8.658767814184225 2 40.198325191041469 2.4251122229812903 2 63.661456475044019 10.98236973005527 2 66.980887423154627 2.4927926520419432 2 90.734771187010239 8.4130209032197492 2 96.196599381655972 6.9106809519205701 2 29.444928830078844 11.742273086254787 2 33.755517706557875 4.1409308907086304 2 62.002402556928686 10.211957303387846 2 63.512087396188647 12.127046596608261 2 96.38274300627603 15.901912065541833 2 90.997683680306181 5.5630034948180827 2 34.829120367223631 10.294805523022102 2 34.05765307066806 13.659821628265268 2 60.424747194168852 1.2 2 65.515884983042966 2.3516323201005762 2 89.304998414867427 6.8236356781840408 2 98.8 5.8729310460177366 2 32.491100289865614 7.5021967468860682 2 35.560664367423904 5.7596596962161994 2 59.058961621646432 2.3400226610320187 2 66.030271634554566 6.3014113120489945 2 95.542325684507915 10.300884269092728 2 98.8 11.14722768533171 2 37.678178487646115 6.9228474473494463 2 40.955555789445363 4.5632356751018719 2 63.265696137188968 16.221243912963818 2 63.772696506359331 6.5479832428380975 2 91.394169722093423 13.107358246115771 2 95.100743847546795 2.7496353040033785 2 29.250760661833088 8.7849098966320174 2 35.958294297121704 1.2 2 61.946100369484697 5.9131461496907862 2 65.086736158664038 9.8464276064593363 2 92.539009682484448 17.411216484509207 2 94.500683112548529 4.6090434064331864 2 32.720542088081579 10.397445622940467 2 35.834587595343542 13.589585525569312 2 64.131193081623252 2.7667533278611707 2 69.390599208960936 5.1907973412519217 2 91.89499189839519 2.6148669140495842 2 97.520508456883192 1.2 2 32.365219982610981 1.2 2 38.68251623039577 2.9253836038428123 2 59.670023911414447 6.2451506296581361 2 67.529965259913538 5.9270787547952173 2 96.317224294681367 12.240932187058883 2 92.448130399704993 7.1892598249621598 2 38.594424567321234 11.094324449953824 2 37.618143877482616 2.6178891705097609 2 62.164147432079687 13.84249237267071 2 65.04953861361804 1.2 2 92.355158492977736 9.9021322678675006 2 96.675558724837714 5.3304439318897447 2 32.64427732563724 8.9102899597674661 2 32.683162639420289 4.5655411685802232 2 60.352761608723398 12.477389261624786 2 65.092881326406726 12.796699068552533 2 93.299421351896541 13.586345354217567 2 93.275421997415577 5.0009384079412271 2 34.098747393104716 9.0996003974558359 2 35.240024342617367 12.048506209645188 2 61.396962456406996 1.2 2 66.820760949922644 4.0406726631314971 2 89.40649197578216 9.0425203423924767 2 98.8 4.0351510122942162 2 31.190961245062514 7.0277309124610579 2 36.132020322096722 6.8163227411763243 2 60.203766924204032 3.1270191578261572 2 64.874621507486864 8.1933984211848347 2 95.461457663187147 14.010801479504732 2 97.171477242111749 9.0293837411030911 2 39.754546298167064 3.5751115066181756 2 41.292442051338256 6.4368824957818758 2 62.37141060856267 19.926362731240371 2 64.505926783953527 4.0552088663872059 2 91.767651799065888 11.676606810239347 2 95.740635798788361 4.3895114551139862 2 27.738495484135644 5.2891778851344835 2 35.075174341191534 4.501391089656285 2 62.063337757001406 3.7008309420978893 2 62.300252530407867 8.2710880362297523 2 87.485473414528428 14.011903689242738 2 94.109137871244457 1.2 2 </DataArray>
</Points>
<Cells>
<DataArray Name="connectivity" format="ascii" type="Int32">0</DataArray>
<DataArray Name="offsets" format="ascii" type="Int32">0</DataArray>
<DataArray Name="types" format="ascii" type="UInt8">1</DataArray>
</Cells>
<PointData>
<DataArray Name="Points" NumberOfComponents="3" format="ascii" type="Float32">0 0 0 31.645224985785248 11.371109177011743 2 33.88187467915975 17.45171804215504 2 62.961628709618644 1.2 2 68.084954843709269 6.8951041537275248 2 91.209152566927642 4.221586386535118 2 98.8 1.2 2 33.650232444770239 1.2 2 36.124211596694934 2.6014045652449265 2 61.511916779669676 4.7704051325627175 2 66.471744447124181 9.8083962843165295 2 98.45301202209447 14.971897730700027 2 94.006561782362084 6.8620695782458601 2 36.328949913667628 8.1063161009927995 2 39.416942703933024 1.2 2 63.262047280901498 9.7922001809001937 2 65.665682383689017 3.446482523057278 2 90.712582156644373 7.1007274683529742 2 97.473205368407434 7.3371433541762601 2 30.459697984632232 10.358311791630381 2 34.164871081234907 5.8801793305911456 2 61.311428287897016 9.126992922487009 2 63.867125214023474 13.763958899720899 2 94.130582222773384 15.744404790419871 2 92.419464647431582 5.8166618497418359 2 35.920792341212142 9.4671159671855243 2 34.201065553134626 15.320631018765889 2 61.130645514900088 2.9379433887853699 2 66.18277807890037 1.2 2 89.445597999335504 5.2730901405149879 2 98.8 7.4428305963742369 2 32.621986794423044 5.8799246088418329 2 36.727137024767693 4.79962136108721 2 58.219087034532755 1.2 2 66.014238865783113 5.102767337669035 2 94.117174819938384 9.9155195639436737 2 98.8 9.2051862863046576 2 37.621208222594028 5.7325128053713659 2 41.555126998795252 3.500338239807077 2 64.641018153444676 17.583661232626909 2 63.316668966216845 5.480339795616243 2 90.157067562724109 14.220944283705707 2 95.304906020735942 1.2 2 28.563165065897564 7.0653656506021472 2 34.796991818314353 1.2 2 61.494157574108009 6.8643535212632338 2 63.868616155457161 8.7368654924393745 2 90.505507098292213 16.352863629055879 2 93.839913670220596 2.9692514173749691 2 33.722476819533348 11.568669982521103 2 36.58686392189378 14.915876505966752 2 63.034889393099427 2.8697867671240016 2 67.715003921831965 4.7231943824999885 2 91.857332281430544 1.2 2 96.468852985323963 1.2 2 31.193350538227389 1.2 2 36.863821550290062 3.7392321512427036 2 59.676863795663152 4.3873128211940173 2 66.68664659535375 7.4622668750781065 2 97.255883670006199 10.753237173867054 2 94.251274943810245 8.3315135850841333 2 37.166349295571727 10.156556365886052 2 38.336075101294796 1.2 2 62.251776152703229 15.13714891738427 2 63.985843455652379 1.2 2 92.50892370451281 8.5285135419403026 2 97.806921774382488 5.1876869374113541 2 31.120520056272685 9.0542147322903013 2 32.512301676629718 2.7368859702420938 2 62.058194871506402 12.526970001180668 2 65.184481721544557 11.166533790672743 2 92.105928808618913 15.156998847345779 2 92.601150464815348 3.6197357929644167 2 33.895315700028441 7.1411459216871158 2 36.567263259733103 11.462349336776084 2 59.397436542749645 1.2 2 67.867391965514855 2.8180015436017021 2 88.404590762116754 7.9320319269818569 2 97.58236260488755 3.2041572564656451 2 30.113451860840701 7.4579911932191933 2 34.809167003385816 7.899379966619632 2 58.598495639697447 3.279055566581969 2 64.914708465491813 6.9345045377621499 2 94.600215130053599 12.124281992798238 2 95.67474620186411 8.4103045587140066 2 38.459174526175104 4.3513599708778683 2 42.014604211521842 5.3093748857412093 2 62.529536233533022 17.900543206453939 2 64.821732398424942 5.2004586478277135 2 93.289330434483404 11.448113670566514 2 96.5177760529523 3.1327378551636733 2 29.417882855046201 5.631347710446736 2 35.098066209067419 3.1052967905836728 2 63.190611120330608 4.3289659992523397 2 62.866793521261016 7.4298437054648323 2 88.665128006132974 15.249786803167188 2 93.018060571588052 1.2 2 32.644832211486062 13.012230360570642 2 35.92742457686181 16.539112753094322 2 62.131642920754835 1.7547409338376438 2 69.411381786080753 6.2888409498052136 2 90.097677776443447 3.5994665209953105 2 98.8 2.4834865181797126 2 33.880580762432643 2.654783410133787 2 37.152716096126674 1.2 2 60.390964321276861 5.1960028925722614 2 66.350720876390852 8.5199874762021679 2 98.113372489919882 12.963213088039961 2 94.997023825393768 6.1842649418798015 2 37.745241443672001 8.658767814184225 2 40.198325191041469 2.4251122229812903 2 63.661456475044019 10.98236973005527 2 66.980887423154627 2.4927926520419432 2 90.734771187010239 8.4130209032197492 2 96.196599381655972 6.9106809519205701 2 29.444928830078844 11.742273086254787 2 33.755517706557875 4.1409308907086304 2 62.002402556928686 10.211957303387846 2 63.512087396188647 12.127046596608261 2 96.38274300627603 15.901912065541833 2 90.997683680306181 5.5630034948180827 2 34.829120367223631 10.294805523022102 2 34.05765307066806 13.659821628265268 2 60.424747194168852 1.2 2 65.515884983042966 2.3516323201005762 2 89.304998414867427 6.8236356781840408 2 98.8 5.8729310460177366 2 32.491100289865614 7.5021967468860682 2 35.560664367423904 5.7596596962161994 2 59.058961621646432 2.3400226610320187 2 66.030271634554566 6.3014113120489945 2 95.542325684507915 10.300884269092728 2 98.8 11.14722768533171 2 37.678178487646115 6.9228474473494463 2 40.955555789445363 4.5632356751018719 2 63.265696137188968 16.221243912963818 2 63.772696506359331 6.5479832428380975 2 91.394169722093423 13.107358246115771 2 95.100743847546795 2.7496353040033785 2 29.250760661833088 8.7849098966320174 2 35.958294297121704 1.2 2 61.946100369484697 5.9131461496907862 2 65.086736158664038 9.8464276064593363 2 92.539009682484448 17.411216484509207 2 94.500683112548529 4.6090434064331864 2 32.720542088081579 10.397445622940467 2 35.834587595343542 13.589585525569312 2 64.131193081623252 2.7667533278611707 2 69.390599208960936 5.1907973412519217 2 91.89499189839519 2.6148669140495842 2 97.520508456883192 1.2 2 32.365219982610981 1.2 2 38.68251623039577 2.9253836038428123 2 59.670023911414447 6.2451506296581361 2 67.529965259913538 5.9270787547952173 2 96.317224294681367 12.240932187058883 2 92.448130399704993 7.1892598249621598 2 38.594424567321234 11.094324449953824 2 37.618143877482616 2.6178891705097609 2 62.164147432079687 13.84249237267071 2 65.04953861361804 1.2 2 92.355158492977736 9.9021322678675006 2 96.675558724837714 5.3304439318897447 2 32.64427732563724 8.9102899597674661 2 32.683162639420289 4.5655411685802232 2 60.352761608723398 12.477389261624786 2 65.092881326406726 12.796699068552533 2 93.299421351896541 13.586345354217567 2 93.275421997415577 5.0009384079412271 2 34.098747393104716 9.0996003974558359 2 35.240024342617367 12.048506209645188 2 61.396962456406996 1.2 2 66.820760949922644 4.0406726631314971 2 89.40649197578216 9.0425203423924767 2 98.8 4.0351510122942162 2 31.190961245062514 7.0277309124610579 2 36.132020322096722 6.8163227411763243 2 60.203766924204032 3.1270191578261572 2 64.874621507486864 8.1933984211848347 2 95.461457663187147 14.010801479504732 2 97.171477242111749 9.0293837411030911 2 39.754546298167064 3.5751115066181756 2 41.292442051338256 6.4368824957818758 2 62.37141060856267 19.926362731240371 2 64.505926783953527 4.0552088663872059 2 91.767651799065888 11.676606810239347 2 95.740635798788361 4.3895114551139862 2 27.738495484135644 5.2891778851344835 2 35.075174341191534 4.501391089656285 2 62.063337757001406 3.7008309420978893 2 62.300252530407867 8.2710880362297523 2 87.485473414528428 14.011903689242738 2 94.109137871244457 1.2 2 </DataArray>
<DataArray Name="forces" NumberOfComponents="3" format="ascii" type="Float32">0 0 0 -0.16412436884864662 0.14777528700483111 0.0 -0.11385618917488488 0.36836264079379277 0.0 0.013132527984469844 -1.8679997583190822 0.0 0.080915389191131032 0.13336150811649308 0.0 -0.00071649018338171278 0.048166498847158193 0.0 1.2108432121870059 -1.1746324921435578 0.0 -0.091967612077058281 -1.3183026425950062 0.0 -0.063410060345207464 0.099361392888465794 0.0 -0.073502001171090514 0.064144222858684152 0.0 0.092755276603911363 0.13084775790969838 0.0 0.18246588221233204 0.3048553256341518 0.0 -0.000587384443166028 0.14523581724438228 0.0 -0.041092592122698834 0.16823350591232755 0.0 -0.050536977075123168 -1.1278142894169991 0.0 0.014718673782846945 0.21144954917707176 0.0 0.13846024377781907 0.11321343236995096 0.0 -0.046700757164155123 0.075360854356754159 0.0 0.025275190712923085 0.096377097028480407 0.0 -0.17275985879304473 0.15313918074925886 0.0 -0.099687499874087704 0.088058421059855618 0.0 -0.066287565761924405 0.14332836982384078 0.0 -0.049315683112478137 0.17898734029234697 0.0 0.10604733935333729 0.2539725588951473 0.0 0.05689451087087527 0.059306637045389188 0.0 0.033337698298838481 0.21809351981348329 0.0 -0.072175806292337011 0.30965210679050148 0.0 -0.064540712429280944 0.020384534837299517 0.0 0.060053512172087986 -1.5484987721149694 0.0 -0.032812221986509738 0.032722000896699091 0.0 1.1539179264301387 0.18715667239771699 0.0 -0.16099526137556114 0.040837906540184418 0.0 -0.024400271299206633 0.07617614540976525 0.0 -0.094802881243014836 -1.4360886122122776 0.0 0.050340389883052283 0.1555472359834964 0.0 0.0028153560886802209 0.19879521265309508 0.0 0.97316532380449305 0.2012075957031533 0.0 -0.020096614432587034 0.11360970719022334 0.0 0.33259706345690199 0.046822554424250845 0.0 -0.015709187403061944 0.21114442667406713 0.0 -0.079385763755032063 0.11424433567238618 0.0 -0.057172087716905517 0.20388392743451927 0.0 0.0091067323609534956 -1.0040762370423704 0.0 -0.1377459320243658 -0.10734224743555543 0.0 -0.065331872142263103 -1.3881655730386449 0.0 0.035281671422569605 0.15371503223042038 0.0 -0.00084321331597947413 0.20791808794657446 0.0 -0.010233745284673024 0.16750270152866498 0.0 0.048363551581037459 0.0027986921676118603 0.0 -0.054034342534891366 0.22138160520898251 0.0 0.033837508938089983 0.27295105677207904 0.0 0.0038278069366208811 0.065295157185706332 0.0 0.098180582170332209 0.044395255543389356 0.0 -0.070405127328124872 -1.165403527725247 0.0 0.015031794419855027 -0.79685423137720124 0.0 -0.12043350151537861 -1.2578014670082025 0.0 -0.048586501056346598 0.091552205347335325 0.0 -0.064158112562170411 0.02094535346400267 0.0 0.048229376917271138 0.065330117058157583 0.0 0.041120261447195418 0.21545751408751224 0.0 0.050902254846790979 0.18896522711615177 0.0 0.029192715197017161 0.24651729357710078 0.0 -0.040794077605946791 -1.4492145201127054 0.0 -0.048131012496920825 0.205455422756467 0.0 0.054794698978329004 -1.6723062365911461 0.0 -0.0022406004399987828 0.091319700169350759 0.0 -0.028190256677126935 0.043964370144968443 0.0 -0.13755007785597179 0.14666029822997495 0.0 -0.13821912109596074 0.073786512767235413 0.0 -0.1375409757071776 0.14210876432737085 0.0 -0.013417990590928075 0.27287424625734746 0.0 0.054165259938150911 0.23695229961243494 0.0 0.0074906227128357372 -0.017864044037768201 0.0 -0.043950835194377397 0.050746975851501841 0.0 0.067970381508659694 0.2660196807326296 0.0 -0.13364002172375972 -1.6206557834243955 0.0 0.14243519118575221 -0.031331314778424657 0.0 0.0071791967378516397 0.098981959641234449 0.0 -0.091664360778731357 -0.0018704468903921884 0.0 -0.15693169480605651 0.095215407404664582 0.0 -0.13016415353074268 0.23995810237988902 0.0 -0.20983348400084018 0.11172729737464154 0.0 0.012666607727326279 0.1521873340408999 0.0 0.17474768745878491 0.19687994001807207 0.0 0.041374714484458619 0.17012929917353581 0.0 0.075849779396636341 0.11278734768532134 0.0 0.026445540900820297 0.14299776602086922 0.0 -0.019675760327278247 0.23872738553091313 0.0 0.015981196959928168 0.10048011953745584 0.0 0.024607061830488886 0.27010654095001674 0.0 -0.011003999370933215 -0.072071399388599855 0.0 -0.093426051310511821 0.0061432723107069931 0.0 -0.10000539787492571 0.043467957005541624 0.0 -0.03422561517654632 0.10921427718526988 0.0 0.12596830558165673 0.21867702163004843 0.0 -0.095090313502351198 0.2162287285563303 0.0 -0.0019675463536845683 -0.86862794495961126 0.0 -0.11058684308468875 0.14111831160955438 0.0 -0.1407641611264151 0.26543833101952458 0.0 -0.011726144868310589 0.049907243831586179 0.0 0.056639547654093736 0.11392736270528669 0.0 0.0011075406571046109 0.028481861929868457 0.0 1.2835695503761679 0.17990753370129231 0.0 -0.12121078011364783 0.061340885838522069 0.0 -0.058692355387473916 -1.4780857795471016 0.0 -0.069032031115723591 0.0702916977492032 0.0 0.10193557285795393 0.10620489201443876 0.0 0.21749187479602811 0.27451983015331405 0.0 0.0014953780400533134 0.1662862435330788 0.0 -0.022189061788789488 0.14917917025128291 0.0 0.1169298263319134 0.0035360195779443604 0.0 0.055512084497973652 0.2440857557377023 0.0 0.10418112102091431 0.057771766654488202 0.0 -0.032424652996254799 0.096417051622757155 0.0 0.057467460492930014 0.10842875719478759 0.0 -0.12227146525177959 0.35231760768658343 0.0 -0.088726298253902214 0.12816449504868155 0.0 -0.026884206896986201 0.12610219175106052 0.0 -0.064184359627960208 0.26370231760461843 0.0 0.1556746976789897 0.33340682574153097 0.0 -0.0099576825015588663 0.083077124977351022 0.0 0.0072662039470576534 0.17180479919768987 0.0 -0.1060797391751806 0.252316021775564 0.0 -0.10716644103758192 -1.532981468518964 0.0 0.097508950086280327 0.12225027419844733 0.0 -0.070833150392241986 0.076424715767597573 0.0 1.4765574462861384 0.14639564138468292 0.0 -0.087715668212163256 0.075452368121927627 0.0 0.001859472504440518 0.13260317685418899 0.0 -0.14128087350947793 0.10690171993001113 0.0 0.084221987776071691 0.11112119038659621 0.0 0.056867069391227543 0.23313765893061958 0.0 0.94374974888491903 0.23276458662994803 0.0 -0.036731946152546602 0.077130215660364182 0.0 -0.028290496404563159 -0.056302061894082822 0.0 0.061325887931182432 0.17940255682911871 0.0 0.025537758371522182 0.10838628017331059 0.0 0.17829152223428704 0.27877134281481153 0.0 0.090608430931090889 0.093860675504381097 0.0 -0.2095582891284431 0.059187275255072613 0.0 -0.053012570584683089 -1.4147283917589433 0.0 -0.071352326919892434 0.12106879521255351 0.0 0.10624621096772417 0.20511498817734808 0.0 0.053558041585768143 0.22378181776338427 0.0 -0.040109932755891364 0.14927735976645518 0.0 -0.088280072188556657 0.18567799626863185 0.0 -0.10992501710933289 0.29597680135091942 0.0 0.031139794800298673 0.05104903034178529 0.0 0.1817803679154873 0.085774152360849204 0.0 0.032084048842772828 -0.035463332020087834 0.0 0.096642149273991951 -1.0025882013271739 0.0 -0.11040680155127693 -1.2081824266620909 0.0 0.003927308896474635 0.085163059271210817 0.0 -0.018261123640440025 0.12359992289623008 0.0 0.17748877978992542 0.054369827695365927 0.0 0.21086005690437065 0.3142964979978386 0.0 -0.015203073320963281 0.078247569795168254 0.0 0.084285090847762117 0.17711673233031022 0.0 0.0039783591525668835 0.086778993535185645 0.0 -0.058703875479104495 0.20065662075676619 0.0 0.079827668022521378 -1.6945550138588155 0.0 0.025676651335172052 0.14108190578837829 0.0 -0.023505615665322721 0.0017819455194626466 0.0 -0.1292544781471564 0.076645359843132754 0.0 -0.19203495270185245 -0.004167441312488751 0.0 -0.032296227761284158 0.23401742018015209 0.0 0.088904325725733035 0.26946760920536261 0.0 0.16025522639093298 0.23504665292589388 0.0 -0.028750279096888917 0.00063702580570279554 0.0 -0.12920210087006512 0.19984987384553179 0.0 0.0091795016715382483 0.18771688163691014 0.0 -0.065903523006634449 -1.6900167912765653 0.0 0.093634575317774457 0.10790844854891246 0.0 0.0011948704296869256 0.17804671779293574 0.0 1.3436559324810675 0.14411987206362087 0.0 -0.12082719230235543 0.14555822893115888 0.0 -0.10729650384252842 0.16485542945313567 0.0 -0.091488090479677653 0.027142331044175128 0.0 0.068257567134303518 0.20417838072013328 0.0 0.14127342939408191 0.29109502323148267 0.0 0.013313957120759778 0.16001458304586705 0.0 0.10674595804100893 -0.046265183194237891 0.0 0.075134246651912984 0.059933450940188593 0.0 -0.016039764674459889 0.22264571786094484 0.0 0.024653534888697773 0.084585094187291071 0.0 -0.035715307305684618 0.13998671047661609 0.0 -0.036122859869115564 0.058242859300915661 0.0 -0.19527693905935711 -0.0095992140846636875 0.0 -0.11397137784254038 0.091120710292482254 0.0 -0.055079994643967178 0.048752816283374967 0.0 -0.10565315645222695 0.1164790685561036 0.0 -0.059257849227388706 0.053671919011030716 0.0 0.0045770372644393098 -1.0788863799489286 0.0 </DataArray>
<DataArray Name="radii" format="ascii" type="Float32">0 1.2 1.2 1.2 1.2 1.2 1.2 1.2 1.2 1.2 1.2 1.2 1.2 1.2 1.2 1.2 1.2 1.2 1.2 1.2 1.2 1.2 1.2 1.2 1.2 1.2 1.2 1.2 1.2 1.2 1.2 1.2 1.2 1.2 1.2 1.2 1.2 1.2 1.2 1.2 1.2 1.2 1.2 1.2 1.2 1.2 1.2 1.2 1.2 1.2 1.2 1.2 1.2 1.2 1.2 1.2 1.2 1.2 1.2 1.2 1.2 1.2 1.2 1.2 1.2 1.2 1.2 1.2 1.2 1.2 1.2 1.2 1.2 1.2 1.2 1.2 1.2 1.2 1.2 1.2 1.2 1.2 1.2 1.2 1.2 1.2 1.2 1.2 1.2 1.2 1.2 1.2 1.2 1.2 1.2 1.2 1.2 1.2 1.2 1.2 1.2 1.2 1.2 1.2 1.2 1.2 1.2 1.2 1.2 1.2 1.2 1.2 1.2 1.2 1.2 1.2 1.2 1.2 1.2 1.2 1.2 1.2 1.2 1.2 1.2 1.2 1.2 1.2 1.2 1.2 1.2 1.2 1.2 1.2 1.2 1.2 1.2 1.2 1.2 1.2 1.2 1.2 1.2 1.2 1.2 1.2 1.2 1.2 1.2 1.2 1.2 1.2 1.2 1.2 1.2 1.2 1.2 1.2 1.2 1.2 1.2 1.2 1.2 1.2 1.2 1.2 1.2 1.2 1.2 1.2 1.2 1.2 1.2 1.2 1.2 1.2 1.2 1.2 1.2 1.2 1.2 1.2 1.2 1.2 1.2 1.2 1.2 1.2 1.2 1.2 1.2 1.2 1.2 </DataArray>
</PointData>
<CellData/>
</Piece>
</UnstructuredGrid>
</VTKFile>
