<?xml version="1.0" ?>
<VTKFile byte_order="LittleEndian" type="UnstructuredGrid" version="0.1">
<UnstructuredGrid>
<Piece NumberOfCells="0" NumberOfPoints="69">
<Points>
<DataArray NumberOfComponents="3" format="ascii" type="Float32">0 0 0 8.5302676374970616 1.393365918906393 2 16.192073322497993 1.393365918906393 2 26.384150940486087 4.2150833123948139 2 31.374595719990953 1.393365918906393 2 36.706346074292973 7.2066642888180734 2 43.432395164901664 1.393365918906393 2 44.450744948896393 6.616979215709998 2 53.506690875827438 1.393365918906393 2 54.477038546629508 3.9565054026621564 2 62.067466153106487 5.7609583515247538 2 71.425785867588502 1.393365918906393 2 73.945392587340706 6.3226686048344138 2 75.470834048571888 3.9267839071333364 2 79.505924483890041 6.4759152387643759 2 88.427942504104564 2.0496059192378029 2 93.150052623618393 6.3282677942525174 2 94.691431301588821 3.8411135525677973 2 3.8686822049435907 1.393365918906393 2 13.491958544957933 1.393365918906393 2 23.617360937095452 1.393365918906393 2 34.061120972749869 6.3661503158419448 2 36.496244087385222 1.393365918906393 2 42.896379416013694 4.1146167366418922 2 48.475265459529986 1.393365918906393 2 52.238530952576276 5.6085870569164182 2 57.515283316490596 6.5918011933449954 2 63.204802292543 3.343166777977657 2 71.158716962679065 6.431033741422076 2 72.74739257591132 3.8398441127774188 2 79.054840675802907 1.393365918906393 2 81.118466964192365 4.22511377143588 2 84.373398645102313 5.7798970027923353 2 93.430605962350086 1.393365918906393 2 94.519444738936258 8.7403770662457969 2 8.4977955205341953 4.4554723079869065 2 16.007226824255092 4.1632395388920447 2 26.215773857606738 1.4365228526235374 2 32.802982743695601 3.9005277448328024 2 39.037246274793091 5.6897520978108522 2 40.955712024695472 2.0297789990565929 2 47.600237467400767 6.4465334251178925 2 50.988041238506142 1.393365918906393 2 56.069378877887502 1.393365918906393 2 64.846917449696747 5.5728222614392884 2 68.839596003676107 1.393365918906393 2 75.028312963042282 8.8732728127685778 2 76.728597608632128 6.3891588760888389 2 78.225182716931812 4.0183354193911995 2 86.01903662401628 1.393365918906393 2 90.490252440773602 7.0782635651104338 2 96.017197781191186 1.393365918906393 2 6.2041902902588575 2.8845880017932544 2 13.226233089691949 4.2026784501591994 2 20.995801915740071 1.4626049210821979 2 35.586011778575319 4.0192438851443919 2 33.944307770419776 1.393365918906393 2 45.962581899138051 1.393365918906393 2 45.677412857762079 4.136998059552865 2 54.764125986978286 6.7129113101252083 2 57.259664251555712 3.8526568531531118 2 61.362291164609744 1.393365918906393 2 70.04541525753487 3.8798174129838383 2 73.996710214191154 1.393365918906393 2 76.537239624838747 1.393365918906393 2 81.555328560166359 1.5076814738899855 2 86.595857401702517 4.1160612623385466 2 91.977861600593613 3.853461602040936 2 95.890786413869819 6.327724101823315 2 </DataArray>
</Points>
<Cells>
<DataArray Name="connectivity" format="ascii" type="Int32">0</DataArray>
<DataArray Name="offsets" format="ascii" type="Int32">0</DataArray>
<DataArray Name="types" format="ascii" type="UInt8">1</DataArray>
</Cells>
<PointData>
<DataArray Name="Points" NumberOfComponents="3" format="ascii" type="Float32">0 0 0 8.5302676374970616 1.393365918906393 2 16.192073322497993 1.393365918906393 2 26.384150940486087 4.2150833123948139 2 31.374595719990953 1.393365918906393 2 36.706346074292973 7.2066642888180734 2 43.432395164901664 1.393365918906393 2 44.450744948896393 6.616979215709998 2 53.506690875827438 1.393365918906393 2 54.477038546629508 3.9565054026621564 2 62.067466153106487 5.7609583515247538 2 71.425785867588502 1.393365918906393 2 73.945392587340706 6.3226686048344138 2 75.470834048571888 3.9267839071333364 2 79.505924483890041 6.4759152387643759 2 88.427942504104564 2.0496059192378029 2 93.150052623618393 6.3282677942525174 2 94.691431301588821 3.8411135525677973 2 3.8686822049435907 1.393365918906393 2 13.491958544957933 1.393365918906393 2 23.617360937095452 1.393365918906393 2 34.061120972749869 6.3661503158419448 2 36.496244087385222 1.393365918906393 2 42.896379416013694 4.1146167366418922 2 48.475265459529986 1.393365918906393 2 52.238530952576276 5.6085870569164182 2 57.515283316490596 6.5918011933449954 2 63.204802292543 3.343166777977657 2 71.158716962679065 6.431033741422076 2 72.74739257591132 3.8398441127774188 2 79.054840675802907 1.393365918906393 2 81.118466964192365 4.22511377143588 2 84.373398645102313 5.7798970027923353 2 93.430605962350086 1.393365918906393 2 94.519444738936258 8.7403770662457969 2 8.4977955205341953 4.4554723079869065 2 16.007226824255092 4.1632395388920447 2 26.215773857606738 1.4365228526235374 2 32.802982743695601 3.9005277448328024 2 39.037246274793091 5.6897520978108522 2 40.955712024695472 2.0297789990565929 2 47.600237467400767 6.4465334251178925 2 50.988041238506142 1.393365918906393 2 56.069378877887502 1.393365918906393 2 64.846917449696747 5.5728222614392884 2 68.839596003676107 1.393365918906393 2 75.028312963042282 8.8732728127685778 2 76.728597608632128 6.3891588760888389 2 78.225182716931812 4.0183354193911995 2 86.01903662401628 1.393365918906393 2 90.490252440773602 7.0782635651104338 2 96.017197781191186 1.393365918906393 2 6.2041902902588575 2.8845880017932544 2 13.226233089691949 4.2026784501591994 2 20.995801915740071 1.4626049210821979 2 35.586011778575319 4.0192438851443919 2 33.944307770419776 1.393365918906393 2 45.962581899138051 1.393365918906393 2 45.677412857762079 4.136998059552865 2 54.764125986978286 6.7129113101252083 2 57.259664251555712 3.8526568531531118 2 61.362291164609744 1.393365918906393 2 70.04541525753487 3.8798174129838383 2 73.996710214191154 1.393365918906393 2 76.537239624838747 1.393365918906393 2 81.555328560166359 1.5076814738899855 2 86.595857401702517 4.1160612623385466 2 91.977861600593613 3.853461602040936 2 95.890786413869819 6.327724101823315 2 </DataArray>
<DataArray Name="forces" NumberOfComponents="3" format="ascii" type="Float32">0 0 0 -0.019306800288250797 -0.0086537129281401975 0.0 -0.025722760083363817 0.00029147253330196951 0.0 -0.00011868660882517908 0.002986969248722562 0.0 -0.010428281489481606 0.0 0.0 0.0062326138088940738 0.0071531748823897671 0.0 -0.02935472007545295 -0.067039683922374971 0.0 -0.0096855656433234363 0.019525609443910422 0.0 0.028413879608053305 -0.046958153289062776 0.0 0.0063789081758232873 0.027119809710493815 0.0 -0.0030927181531980644 0.060479521409439921 0.0 -0.017343240734265991 -0.0086357403026406532 0.0 0.0040134998556004553 0.013293242765881997 0.0 0.0069261071163668544 0.016843202867966131 0.0 0.0056341080845671437 0.030212044558042293 0.0 0.0068476634252110299 0.036342236833737801 0.0 -0.0099883440986693814 0.026881655086007577 0.0 0.00044646548210748767 0.0093678118389802743 0.0 -0.0074820304442983774 -0.01523516070726311 0.0 -0.023880288888681774 0.006082590735579394 0.0 -0.024369112487546224 -0.0072930522096427853 0.0 0.0017793168212325242 0.013810537873815889 0.0 0.0031671693133282844 0.0012063833949146358 0.0 -0.0035939061132037277 0.012763606365293166 0.0 0.00030708254825384529 0.0 0.0 -0.0042773298124817727 0.021509892412326079 0.0 0.00027309228573732525 0.018166184194903949 0.0 -0.0018697922947898821 0.053112026042491552 0.0 0.0016727120939981225 0.0038638681209105315 0.0 -0.0049570343134812817 0.011302780484088615 0.0 -0.0037216886259899273 -0.046903793883826851 0.0 -0.0048077268172916181 0.021755834578169177 0.0 -0.0011598673435305367 0.025658795791534635 0.0 0.0030732309856005557 -0.029628405976513169 0.0 0.0005969380991928579 0.022629149213595524 0.0 -0.0045142209024819045 0.0089317439223383678 0.0 0.005142315757377656 0.010878978389622722 0.0 -0.01990234555601389 0.0036766134615989509 0.0 -0.0019705752938102717 0.013269458437893358 0.0 0.011699227097425489 0.012753737750012125 0.0 -0.017336522187036629 0.13583764385273822 0.0 0.0 0.0 0.0 0.013734086615863783 -0.039596741810463271 0.0 0.037468190767382337 -0.052180100409110051 0.0 0.00067729856314788922 0.04435274167580238 0.0 -0.029075301769065642 -0.0040176667240088906 0.0 0.0067143945293664971 0.015824484343792671 0.0 0.005245772990712565 0.019913684809005537 0.0 0.01549896843746274 0.020617553370648876 0.0 0.0087194862174081109 -0.048911290959711841 0.0 -0.0072108508625985546 0.040153675435180877 0.0 0.0032563227267937145 -0.0087700097208977951 0.0 -0.011908091535268405 0.016913570633355284 0.0 0.0039223054787420764 0.0032743456350642496 0.0 -0.026884871776105101 0.021773782666542913 0.0 -0.0012488223939179444 0.0076398769540461176 0.0 -0.0053950269060342431 -0.030411526142342944 0.0 -0.013627703379066569 -0.030005315917005899 0.0 -0.014422143066888379 0.012340402954289259 0.0 -0.0037280368776584256 0.030591280723012398 0.0 0.037256509061364941 0.017201408730870935 0.0 0.048394799770817676 -0.074244272325281149 0.0 -0.016897625024844667 0.0092873194515830926 0.0 -0.011688330789045603 -0.035299466481962902 0.0 -0.0075205674729684202 -0.035973346426907575 0.0 0.00067353410822139533 0.024819288386022098 0.0 -0.0092609915242718895 0.01569277916785387 0.0 -0.0072071890365001112 0.02119533272485391 0.0 -0.0065649107279920488 0.016415848697165954 0.0 </DataArray>
<DataArray Name="radii" format="ascii" type="Float32">0 1.393365918906393 1.393365918906393 1.393365918906393 1.393365918906393 1.393365918906393 1.393365918906393 1.393365918906393 1.393365918906393 1.393365918906393 1.393365918906393 1.393365918906393 1.393365918906393 1.393365918906393 1.393365918906393 1.393365918906393 1.393365918906393 1.393365918906393 1.393365918906393 1.393365918906393 1.393365918906393 1.393365918906393 1.393365918906393 1.393365918906393 1.393365918906393 1.393365918906393 1.393365918906393 1.393365918906393 1.393365918906393 1.393365918906393 1.393365918906393 1.393365918906393 1.393365918906393 1.393365918906393 1.393365918906393 1.393365918906393 1.393365918906393 1.393365918906393 1.393365918906393 1.393365918906393 1.393365918906393 1.393365918906393 1.393365918906393 1.393365918906393 1.393365918906393 1.393365918906393 1.393365918906393 1.393365918906393 1.393365918906393 1.393365918906393 1.393365918906393 1.393365918906393 1.393365918906393 1.393365918906393 1.393365918906393 1.393365918906393 1.393365918906393 1.393365918906393 1.393365918906393 1.393365918906393 1.393365918906393 1.393365918906393 1.393365918906393 1.393365918906393 1.393365918906393 1.393365918906393 1.393365918906393 1.393365918906393 1.393365918906393 </DataArray>
</PointData>
<CellData/>
</Piece>
</UnstructuredGrid>
</VTKFile>
