<?xml version="1.0" ?>
<VTKFile byte_order="LittleEndian" type="UnstructuredGrid" version="0.1">
<UnstructuredGrid>
<Piece NumberOfCells="0" NumberOfPoints="35">
<Points>
<DataArray NumberOfComponents="3" format="ascii" type="Float32">0 0 0 34.537772141888674 9.7428798046195908 2 40.583975541266668 6.9001986697436015 2 82.187280501765045 1 2 37.432855075078713 8.7699517134294105 2 80.85075369771458 12.424930621875667 2 32.679993443089295 9.840149238093451 2 38.847558573510582 5.0785552172739443 2 81.501976798471603 10.412402034967647 2 34.21243090882659 4.3397188430290026 2 80.409640611079155 1.5999999999999999 2 33.407304454662452 11.888897118428133 2 36.095948470371297 7.990412456391276 2 38.223863677731075 10.944650713031482 2 80.26093480431868 6.3529904963185775 2 42.336571182628369 1 2 34.378811425879348 1.2 2 40.117789538910166 1.4 2 81.990993997361912 6.6481088331888367 2 36.900389310163909 6.3605659439566784 2 79.386756999491055 13.928811618546572 2 35.403196392380586 3.3550531660796978 2 80.963305357926842 4.4885231312626175 2 32.293478241230702 14.424052975869673 2 35.452702082251172 5.6801189985808609 2 80.000243884713583 9.9051120829664914 2 38.97420136611148 3.1721976133089913 2 39.949015124595917 14.508962068512245 2 36.231255962859656 1.5999999999999999 2 81.534155552115678 2.72092283639304 2 31.534083311021817 12.067509390383625 2 79.669494656403529 3.5454862252974606 2 37.565927256795923 13.495256794446947 2 37.193780322237934 4.1710838361702063 2 81.206077387908906 8.2209440072630766 2 </DataArray>
</Points>
<Cells>
<DataArray Name="connectivity" format="ascii" type="Int32">0</DataArray>
<DataArray Name="offsets" format="ascii" type="Int32">0</DataArray>
<DataArray Name="types" format="ascii" type="UInt8">1</DataArray>
</Cells>
<PointData>
<DataArray Name="Points" NumberOfComponents="3" format="ascii" type="Float32">0 0 0 34.537772141888674 9.7428798046195908 2 40.583975541266668 6.9001986697436015 2 82.187280501765045 1 2 37.432855075078713 8.7699517134294105 2 80.85075369771458 12.424930621875667 2 32.679993443089295 9.840149238093451 2 38.847558573510582 5.0785552172739443 2 81.501976798471603 10.412402034967647 2 34.21243090882659 4.3397188430290026 2 80.409640611079155 1.5999999999999999 2 33.407304454662452 11.888897118428133 2 36.095948470371297 7.990412456391276 2 38.223863677731075 10.944650713031482 2 80.26093480431868 6.3529904963185775 2 42.336571182628369 1 2 34.378811425879348 1.2 2 40.117789538910166 1.4 2 81.990993997361912 6.6481088331888367 2 36.900389310163909 6.3605659439566784 2 79.386756999491055 13.928811618546572 2 35.403196392380586 3.3550531660796978 2 80.963305357926842 4.4885231312626175 2 32.293478241230702 14.424052975869673 2 35.452702082251172 5.6801189985808609 2 80.000243884713583 9.9051120829664914 2 38.97420136611148 3.1721976133089913 2 39.949015124595917 14.508962068512245 2 36.231255962859656 1.5999999999999999 2 81.534155552115678 2.72092283639304 2 31.534083311021817 12.067509390383625 2 79.669494656403529 3.5454862252974606 2 37.565927256795923 13.495256794446947 2 37.193780322237934 4.1710838361702063 2 81.206077387908906 8.2209440072630766 2 </DataArray>
<DataArray Name="forces" NumberOfComponents="3" format="ascii" type="Float32">0 0 0 0.064494948644745587 0.046979169054925385 0.0 -0.10609723754574357 0.1235524683945407 0.0 -0.037014010000088748 -1.1699132932578702 0.0 -0.12154230780471253 0.2571594979258337 0.0 0.031780243625984528 0.30289169400637167 0.0 0.078248256834247076 0.18575266063287804 0.0 -0.09113218660095157 0.12022904905353882 0.0 0.052971424428001956 0.25307620356962435 0.0 0.18090768657579659 0.06216887302871546 0.0 -0.0098241901208386828 -1.6624986363412371 0.0 0.13758158234994616 0.22226258988745951 0.0 0.045669050653843211 0.19396219269416032 0.0 -0.069011490026239297 0.10907476628233581 0.0 0.091991159605398387 0.11179104543159279 0.0 -0.07134503896591804 -1.0362121174143795 0.0 0.055055932743954095 -1.1530214306968345 0.0 -0.082506712844876651 -1.3566130814244004 0.0 -0.043838261723193883 0.06920323711076759 0.0 -0.037258170758974994 0.13265650643966065 0.0 0.06201022214648122 0.22771928917222045 0.0 0.078333627989248256 -0.010888412188555907 0.0 0.13149022486178485 -0.034888692857474896 0.0 0.12340949754189801 0.2965982034627358 0.0 0.092230987950339127 0.098985216144110044 0.0 0.046278104066482806 0.23054741149112196 0.0 -0.086859942285174629 0.06123481436485767 0.0 -0.010870654315820932 0.37414995049864908 0.0 0.033428345419894312 -1.0881672526790389 0.0 0.023965481932880117 -0.0020124953464604189 0.0 0.10080166654238665 0.30911025978887896 0.0 -0.0014778610882190402 0.064241726506342786 0.0 0.028758782408992614 0.26727944150989369 0.0 -0.03258696622631288 0.062327239560583891 0.0 0.10340878861332203 0.19072343800532265 0.0 </DataArray>
<DataArray Name="radii" format="ascii" type="Float32">0 1.2 1.4 1 1.2 1.2 1.2 1 1 1 1.5999999999999999 1.5999999999999999 1.2 1.4 1.4 1 1.2 1.4 1.4 1 1 1.2 1.2 1.4 1.4 1.5999999999999999 1 1.2 1.5999999999999999 1 1 1.5999999999999999 1.5999999999999999 1.5999999999999999 1.2 </DataArray>
</PointData>
<CellData/>
</Piece>
</UnstructuredGrid>
</VTKFile>
