<?xml version="1.0" ?>
<VTKFile byte_order="LittleEndian" type="UnstructuredGrid" version="0.1">
<UnstructuredGrid>
<Piece NumberOfCells="0" NumberOfPoints="768">
<Points>
<DataArray NumberOfComponents="3" format="ascii" type="Float32">36.928472999083198 10.757071474507786 2 51.156549670946767 17.572223789297681 2 67.942062929011115 14.344169967020328 2 75.464908052729982 16.820732286510808 2 91.615943018732153 9.1575039892971795 2 92.786006838088198 1 2 44.000880762502895 9.2893164195587481 2 55.202074151145723 3.4932068345084475 2 73.850243867349334 11.64813872833416 2 80.185317873642774 2.7952028262872086 2 85.93533012557964 1 2 99.0 8.1525812336415786 2 40.528615129277036 7.9810854386059162 2 53.007360299588463 8.7795324092321501 2 67.728340006217707 4.1994651826081721 2 83.243025807860164 12.086209314848476 2 87.664054454843225 1 2 92.361620921670493 13.073788983550745 2 40.491800604250329 2.7976902561824866 2 59.681671645651257 8.0805006090096008 2 70.954030798337058 11.296976609381797 2 75.307167591397828 1 2 87.720823431858193 20.643108635045845 2 97.757818455149604 4.4617816705281452 2 36.021144583596502 3.8864549674599993 2 52.095613486610858 19.445258897944854 2 65.812528026217137 21.264086077173477 2 77.010909398277704 13.720711775806704 2 87.414856048076345 13.690493785136622 2 94.608003722553306 8.8250453439778571 2 42.233938167059513 16.771065136378553 2 54.676791754482586 7.9081412874159929 2 71.800648241568453 3.8024124612238714 2 76.996429612892953 7.4483858768031519 2 79.976709784386003 1.7473013073096126 2 99.0 20.675449413146207 2 39.327234084403578 12.416406902966527 2 54.740353014030248 4.9546296547532247 2 66.792323178962235 5.9907234314544633 2 82.815151806052995 10.678347310986414 2 87.038556828681919 8.1873659453600993 2 93.188292506554745 17.508390453813966 2 39.108518354518104 5.3633222316512352 2 57.200007123226463 1 2 72.418478387782784 21.945156426399468 2 76.189131417411005 1 2 84.396856302357534 8.6233842548609214 2 94.543223962998368 1.9020168828620201 2 35.794479665119539 5.6643260344891484 2 49.569759891983544 10.741661351098635 2 66.549654328432311 16.492883235015181 2 77.336247372891719 10.753073450717315 2 89.877913835738198 11.005418618603088 2 91.853405600578142 1 2 44.799066520617529 14.898528293305235 2 54.435653054576846 1 2 73.078025498911813 5.6343769264370058 2 80.431934273964117 5.9971193620273571 2 85.826010972804056 4.3448835806631116 2 96.740906151647749 10.448639837460492 2 39.309758267963915 10.674402837159246 2 51.018401557539143 6.8404365818007635 2 71.9039569664006 5.6679268175657809 2 82.147118887024234 18.709731032486527 2 90.057495233145389 4.3634771212697343 2 89.701136647120464 16.588608455214079 2 43.000800316305224 5.5145718744880634 2 56.620858740425604 8.2513499009742013 2 69.127933635887473 14.253715106700366 2 75.175202816452838 6.1856308002659244 2 84.742967616504316 14.071884090478383 2 99.0 3.4799053702868701 2 37.39679902665916 5.765924717315416 2 56.723673152627988 22.950715037039821 2 65.164482836947954 13.539153216005488 2 79.96382499198802 21.38664657431206 2 89.747552941034471 18.242263820105691 2 93.780569544743329 6.4059571790618328 2 41.237174020577967 12.955961010451402 2 54.451300590614466 12.136208250196903 2 71.68133463873491 1 2 78.30733967024932 11.429803251876848 2 83.876154503042116 4.0896242855088811 2 99.0 15.332730655034313 2 40.19373275288801 21.30110791180029 2 51.560426876040324 1 2 71.518473599723606 8.3140370043970648 2 78.941691321560683 15.63637048111126 2 89.690401076659441 9.2861295189681705 2 97.28309510233963 12.405106396497002 2 38.831200982354247 1.9038400624673217 2 58.778903354481805 4.4930698299845702 2 72.534729260804738 14.186409597325575 2 78.336665287397949 6.0329727635095765 2 83.759139869112957 5.845226436101707 2 95.278153562567397 5.649479162808694 2 35.810307213303325 10.460376385272582 2 52.799033873780388 14.431554791029841 2 66.079148667865667 10.72261461148716 2 75.646200674005428 19.957331091853867 2 92.970830460810632 7.5552418735568967 2 93.749489389473808 2.8380468814092978 2 42.594225802523425 11.518848800813783 2 56.773439898827299 6.6791304611858378 2 74.960236873794244 9.7888108782983263 2 79.02604094819776 2.0708463464035618 2 84.001730815487264 1 2 96.480423901049818 6.6920051011880144 2 39.856535869296074 7.1835365122076089 2 51.600819938045987 11.525156621125321 2 69.835958330513691 2.036582249005888 2 83.896655595089825 9.4895676838172331 2 89.563903133461039 1 2 91.237227719741398 13.595624078929443 2 40.173277553160162 3.8489276077928474 2 59.512072775424521 11.865326529911771 2 72.152706310599868 9.732984094143811 2 76.146503336589859 2.9350523563665929 2 83.440697387140304 18.393247421716897 2 99.0 7.1721587528188309 2 36.937558001564874 1 2 53.980989271329911 21.540042677223148 2 66.419319595993116 15.255619069612843 2 77.859050518489383 16.230220080243402 2 88.327291959504819 17.25347643290025 2 91.874923883642865 10.891311117307716 2 43.480653705410205 21.352439356392605 2 55.314444089915398 11.123524861779188 2 72.634908897858466 1 2 75.764026928113012 7.0042460313868036 2 83.107288874469219 1 2 96.987622283538315 16.607253420215034 2 37.794653998770784 14.753577632526298 2 53.476230196090746 4.1239266372143772 2 69.605699108839275 8.0819780185941195 2 79.465038617542277 12.323278029063543 2 85.822451139254511 10.622858561751476 2 95.858478775523821 19.787040893946731 2 40.489943321513088 6.6225821252959971 2 56.572720799436937 3.0064160362426273 2 70.114304142154651 16.267188389038218 2 78.375928143244039 4.9724446669412012 2 83.059967811200138 8.2489517069826324 2 97.196129665794771 1 2 35.545178541583986 2.8787436675685276 2 52.751262640195286 12.704603217301493 2 69.219943747961793 21.621764257387014 2 75.864698155064687 12.963523334083327 2 91.014081692908945 11.672197923248415 2 92.047136130736234 4.114357138024344 2 43.151865118667736 15.291128561604596 2 56.315468822354084 1 2 74.384406788925602 7.9456171368039099 2 82.239382219948524 3.2524559113569649 2 86.759839681438038 7.0493109778831169 2 95.285530313546985 12.390858485293197 2 37.960074449145374 7.4757566231979498 2 53.098207692102278 5.7179747144269255 2 68.642989899350283 5.5160721711883829 2 84.12122046817953 15.6067054644761 2 87.000556692654342 2.7451729005463967 2 89.270432298639165 13.017158954840914 2 42.346208186686702 2.9245274998425659 2 58.143648347350421 10.51470611686559 2 70.736908120614771 14.23166577276633 2 74.33038551222036 2.7289240437465248 2 85.912108510740509 15.605958133453651 2 99.0 1.6991587640862007 2 35.312442730876462 7.7985591672842398 2 56.179424877415052 16.830327880316673 2 63.385813674569789 13.630906497251498 2 77.318383625191345 21.22032259785281 2 92.765312698310382 18.865943701022939 2 90.866225663567292 5.1770700155072094 2 41.47604965484549 11.042495574604942 2 55.333847687675934 12.565618581080502 2 69.094562110540892 4.1571185740676704 2 80.407178977300489 7.7481551986787949 2 84.293540014498532 6.7043657027357142 2 99.0 11.421727479901554 2 40.708955958572744 15.894743182126785 2 52.38276251415855 4.0414363469186965 2 69.839820094471207 11.504193836708192 2 81.619268443188957 14.133303594700708 2 89.468705361116221 6.7855151367276276 2 94.707662525514905 15.387676201900852 2 37.702139584278655 3.2077161882482015 2 58.483234377336139 6.4085420664567279 2 72.760692128986562 16.035718215843332 2 77.534932363058175 6.2324183030812437 2 81.44480638246894 7.1934705443789841 2 95.666032598141271 6.6844250389919475 2 37.932135960599062 8.7565094538509971 2 51.067900147442955 15.421652296510263 2 66.502377612578144 14.190816319489006 2 74.552385848680643 15.264507758644374 2 89.92858002838517 7.9747846050694324 2 92.740573535333027 2.7682586822230975 2 42.775030954364468 8.0511049040404306 2 54.638366221253683 2.799275645660829 2 72.83374882270887 11.33467484341314 2 79.477826281122006 3.289802830787981 2 85.004282531652294 1 2 96.301194251792751 9.4380346772833636 2 42.176076219990101 8.8599253776011135 2 53.766537459234655 9.7353608172724506 2 68.172295689163803 2.5256374324565933 2 81.778407209039486 12.259031094583378 2 88.565508296325376 1 2 93.921563078818977 12.640824830194301 2 40.921542635356694 1.8584366895029363 2 57.869978942606245 8.2505872911800555 2 72.059982553165142 12.794652606720211 2 74.325704565929172 1 2 85.235760813354673 20.889492948682005 2 95.975712436182945 2.3612717173183686 2 34.794555749624863 4.1304520857018394 2 53.688989202751756 19.800239846578634 2 65.828004939138992 17.799374882304917 2 78.582801008121507 14.391657152342361 2 86.485993389093679 13.841704791653605 2 94.265070670406274 7.6331904978462921 2 43.316269710677268 19.55948667346226 2 55.68066874278508 7.1126255917945702 2 71.501069181913877 2.9066451721567659 2 77.190655846993238 9.3766211674132229 2 81.171475597922694 1 2 96.524812166238519 18.315749560990337 2 39.430104736236309 13.673211780506833 2 53.797909384163589 6.1344320781389055 2 66.915724985872899 6.945554954735476 2 80.686601953174417 9.6139366379713564 2 86.913654830489705 9.9824723887772269 2 91.294154123936991 15.493148969334248 2 38.715571741879984 6.0666933375786689 2 58.331336577173033 2.4187753471923275 2 70.951576967764368 20.78320973469895 2 77.21678766175566 1 2 86.424874685707508 8.8255687911714844 2 93.669510233544955 1 2 34.336722928637606 6.9950526772072399 2 48.710781996622586 12.160606119696492 2 68.693832300685088 16.119244326955084 2 76.306250584832554 9.2115947746043396 2 88.353454092111093 12.066483828971165 2 91.148860064170435 1.3143803691190905 2 45.121748737164452 13.157008857564723 2 53.120549462641691 1 2 73.7953703777914 7.2050926498788241 2 80.967752117195474 4.5126594127920834 2 86.687551707822735 5.349681896824535 2 97.902162537363509 7.6955352667654342 2 40.420428672137731 9.6693792787109647 2 49.73238071585746 5.1485358587236458 2 70.242192888927136 5.6690826756990136 2 82.912093269937998 16.921221885865734 2 88.57134657480232 3.5674373705970259 2 91.538256828163057 17.857198874953593
[...]
<PointData>
<DataArray Name="Points" NumberOfComponents="3" format="ascii" type="Float32">36.928472999083198 10.757071474507786 2 51.156549670946767 17.572223789297681 2 67.942062929011115 14.344169967020328 2 75.464908052729982 16.820732286510808 2 91.615943018732153 9.1575039892971795 2 92.786006838088198 1 2 44.000880762502895 9.2893164195587481 2 55.202074151145723 3.4932068345084475 2 73.850243867349334 11.64813872833416 2 80.185317873642774 2.7952028262872086 2 85.93533012557964 1 2 99.0 8.1525812336415786 2 40.528615129277036 7.9810854386059162 2 53.007360299588463 8.7795324092321501 2 67.728340006217707 4.1994651826081721 2 83.243025807860164 12.086209314848476 2 87.664054454843225 1 2 92.361620921670493 13.073788983550745 2 40.491800604250329 2.7976902561824866 2 59.681671645651257 8.0805006090096008 2 70.954030798337058 11.296976609381797 2 75.307167591397828 1 2 87.720823431858193 20.643108635045845 2 97.757818455149604 4.4617816705281452 2 36.021144583596502 3.8864549674599993 2 52.095613486610858 19.445258897944854 2 65.812528026217137 21.264086077173477 2 77.010909398277704 13.720711775806704 2 87.414856048076345 13.690493785136622 2 94.608003722553306 8.8250453439778571 2 42.233938167059513 16.771065136378553 2 54.676791754482586 7.9081412874159929 2 71.800648241568453 3.8024124612238714 2 76.996429612892953 7.4483858768031519 2 79.976709784386003 1.7473013073096126 2 99.0 20.675449413146207 2 39.327234084403578 12.416406902966527 2 54.740353014030248 4.9546296547532247 2 66.792323178962235 5.9907234314544633 2 82.815151806052995 10.678347310986414 2 87.038556828681919 8.1873659453600993 2 93.188292506554745 17.508390453813966 2 39.108518354518104 5.3633222316512352 2 57.200007123226463 1 2 72.418478387782784 21.945156426399468 2 76.189131417411005 1 2 84.396856302357534 8.6233842548609214 2 94.543223962998368 1.9020168828620201 2 35.794479665119539 5.6643260344891484 2 49.569759891983544 10.741661351098635 2 66.549654328432311 16.492883235015181 2 77.336247372891719 10.753073450717315 2 89.877913835738198 11.005418618603088 2 91.853405600578142 1 2 44.799066520617529 14.898528293305235 2 54.435653054576846 1 2 73.078025498911813 5.6343769264370058 2 80.431934273964117 5.9971193620273571 2 85.826010972804056 4.3448835806631116 2 96.740906151647749 10.448639837460492 2 39.309758267963915 10.674402837159246 2 51.018401557539143 6.8404365818007635 2 71.9039569664006 5.6679268175657809 2 82.147118887024234 18.709731032486527 2 90.057495233145389 4.3634771212697343 2 89.701136647120464 16.588608455214079 2 43.000800316305224 5.5145718744880634 2 56.620858740425604 8.2513499009742013 2 69.127933635887473 14.253715106700366 2 75.175202816452838 6.1856308002659244 2 84.742967616504316 14.071884090478383 2 99.0 3.4799053702868701 2 37.39679902665916 5.765924717315416 2 56.723673152627988 22.950715037039821 2 65.164482836947954 13.539153216005488 2 79.96382499198802 21.38664657431206 2 89.747552941034471 18.242263820105691 2 93.780569544743329 6.4059571790618328 2 41.237174020577967 12.955961010451402 2 54.451300590614466 12.136208250196903 2 71.68133463873491 1 2 78.30733967024932 11.429803251876848 2 83.876154503042116 4.0896242855088811 2 99.0 15.332730655034313 2 40.19373275288801 21.30110791180029 2 51.560426876040324 1 2 71.518473599723606 8.3140370043970648 2 78.941691321560683 15.63637048111126 2 89.690401076659441 9.2861295189681705 2 97.28309510233963 12.405106396497002 2 38.831200982354247 1.9038400624673217 2 58.778903354481805 4.4930698299845702 2 72.534729260804738 14.186409597325575 2 78.336665287397949 6.0329727635095765 2 83.759139869112957 5.845226436101707 2 95.278153562567397 5.649479162808694 2 35.810307213303325 10.460376385272582 2 52.799033873780388 14.431554791029841 2 66.079148667865667 10.72261461148716 2 75.646200674005428 19.957331091853867 2 92.970830460810632 7.5552418735568967 2 93.749489389473808 2.8380468814092978 2 42.594225802523425 11.518848800813783 2 56.773439898827299 6.6791304611858378 2 74.960236873794244 9.7888108782983263 2 79.02604094819776 2.0708463464035618 2 84.001730815487264 1 2 96.480423901049818 6.6920051011880144 2 39.856535869296074 7.1835365122076089 2 51.600819938045987 11.525156621125321 2 69.835958330513691 2.036582249005888 2 83.896655595089825 9.4895676838172331 2 89.563903133461039 1 2 91.237227719741398 13.595624078929443 2 40.173277553160162 3.8489276077928474 2 59.512072775424521 11.865326529911771 2 72.152706310599868 9.732984094143811 2 76.146503336589859 2.9350523563665929 2 83.440697387140304 18.393247421716897 2 99.0 7.1721587528188309 2 36.937558001564874 1 2 53.980989271329911 21.540042677223148 2 66.419319595993116 15.255619069612843 2 77.859050518489383 16.230220080243402 2 88.327291959504819 17.25347643290025 2 91.874923883642865 10.891311117307716 2 43.480653705410205 21.352439356392605 2 55.314444089915398 11.123524861779188 2 72.634908897858466 1 2 75.764026928113012 7.0042460313868036 2 83.107288874469219 1 2 96.987622283538315 16.607253420215034 2 37.794653998770784 14.753577632526298 2 53.476230196090746 4.1239266372143772 2 69.605699108839275 8.0819780185941195 2 79.465038617542277 12.323278029063543 2 85.822451139254511 10.622858561751476 2 95.858478775523821 19.787040893946731 2 40.489943321513088 6.6225821252959971 2 56.572720799436937 3.0064160362426273 2 70.114304142154651 16.267188389038218 2 78.375928143244039 4.9724446669412012 2 83.059967811200138 8.2489517069826324 2 97.196129665794771 1 2 35.545178541583986 2.8787436675685276 2 52.751262640195286 12.704603217301493 2 69.219943747961793 21.621764257387014 2 75.864698155064687 12.963523334083327 2 91.014081692908945 11.672197923248415 2 92.047136130736234 4.114357138024344 2 43.151865118667736 15.291128561604596 2 56.315468822354084 1 2 74.384406788925602 7.9456171368039099 2 82.239382219948524 3.2524559113569649 2 86.759839681438038 7.0493109778831169 2 95.285530313546985 12.390858485293197 2 37.960074449145374 7.4757566231979498 2 53.098207692102278 5.7179747144269255 2 68.642989899350283 5.5160721711883829 2 84.12122046817953 15.6067054644761 2 87.000556692654342 2.7451729005463967 2 89.270432298639165 13.017158954840914 2 42.346208186686702 2.9245274998425659 2 58.143648347350421 10.51470611686559 2 70.736908120614771 14.23166577276633 2 74.33038551222036 2.7289240437465248 2 85.912108510740509 15.605958133453651 2 99.0 1.6991587640862007 2 35.312442730876462 7.7985591672842398 2 56.179424877415052 16.830327880316673 2 63.385813674569789 13.630906497251498 2 77.318383625191345 21.22032259785281 2 92.765312698310382 18.865943701022939 2 90.866225663567292 5.1770700155072094 2 41.47604965484549 11.042495574604942 2 55.333847687675934 12.565618581080502 2 69.094562110540892 4.1571185740676704 2 80.407178977300489 7.7481551986787949 2 84.293540014498532 6.7043657027357142 2 99.0 11.421727479901554 2 40.708955958572744 15.894743182126785 2 52.38276251415855 4.0414363469186965 2 69.839820094471207 11.504193836708192 2 81.619268443188957 14.133303594700708 2 89.468705361116221 6.7855151367276276 2 94.707662525514905 15.387676201900852 2 37.702139584278655 3.2077161882482015 2 58.483234377336139 6.4085420664567279 2 72.760692128986562 16.035718215843332 2 77.534932363058175 6.2324183030812437 2 81.44480638246894 7.1934705443789841 2 95.666032598141271 6.6844250389919475 2 37.932135960599062 8.7565094538509971 2 51.067900147442955 15.421652296510263 2 66.502377612578144 14.190816319489006 2 74.552385848680643 15.264507758644374 2 89.92858002838517 7.9747846050694324 2 92.740573535333027 2.7682586822230975 2 42.775030954364468 8.0511049040404306 2 54.638366221253683 2.799275645660829 2 72.83374882270887 11.33467484341314 2 79.477826281122006 3.289802830787981 2 85.004282531652294 1 2 96.301194251792751 9.4380346772833636 2 42.176076219990101 8.8599253776011135 2 53.766537459234655 9.7353608172724506 2 68.172295689163803 2.5256374324565933 2 81.778407209039486 12.259031094583378 2 88.565508296325376 1 2 93.921563078818977 12.640824830194301 2 40.921542635356694 1.8584366895029363 2 57.869978942606245 8.2505872911800555 2 72.059982553165142 12.794652606720211 2 74.325704565929172 1 2 85.235760813354673 20.889492948682005 2 95.975712436182945 2.3612717173183686 2 34.794555749624863 4.1304520857018394 2 53.688989202751756 19.800239846578634 2 65.828004939138992 17.799374882304917 2 78.582801008121507 14.391657152342361 2 86.485993389093679 13.841704791653605 2 94.265070670406274 7.6331904978462921 2 43.316269710677268 19.55948667346226 2 55.68066874278508 7.1126255917945702 2 71.501069181913877 2.9066451721567659 2 77.190655846993238 9.3766211674132229 2 81.171475597922694 1 2 96.524812166238519 18.315749560990337 2 39.430104736236309 13.673211780506833 2 53.797909384163589 6.1344320781389055 2 66.915724985872899 6.945554954735476 2 80.686601953174417 9.6139366379713564 2 86.913654830489705 9.9824723887772269 2 91.294154123936991 15.493148969334248 2 38.715571741879984 6.0666933375786689 2 58.331336577173033 2.4187753471923275 2 70.951576967764368 20.78320973469895 2 77.21678766175566 1 2 86.424874685707508 8.8255687911714844 2 93.669510233544955 1 2 34.336722928637606 6.9950526772072399 2 48.710781996622586 12.160606119696492 2 68.693832300685088 16.119244326955084 2 76.306250584832554 9.2115947746043396 2 88.353454092111093 12.066483828971165 2 91.148860064170435 1.3143803691190905 2 45.121748737164452 13.157008857564723 2 53.120549462641691 1 2 73.7953703777914 7.2050926498788241 2 80.967752117195474 4.5126594127920834 2 86.687551707822735 5.349681896824535 2 97.902162537363509 7.6955352667654342 2 40.420428672137731 9.6693792787109647 2 49.73238071585746 5.1485358587236458 2 70.242192888927136 5.6690826756990136 2 82.912093269937998 16.921221885865734 2 88.57134657480232 3.5674373705970259 2 91.538256828163057 17.857198874953593 2 41.853048046911177 7.1966341649095549 2 55.618326856736211 8.9598224566631419 2 68.548674065634088 12.752109231776403 2 73.67962766713282 3.8010224674758537 2 85.831223641799568 12.607498662160166 2 98.166027879660959 5.7860431145060716 2 37.103774655355252 3.8932814064486485 2 58.581598707570286 21.388463576518735 2 64.869053341042132 11.836349152999842 2 79.029766628628593 17.685557659162502 2 89.865541205054569 21.891202774815181 2 92.096675613314261 5.1788345901321566 2 40.622827766991563 13.924247130159056 2 52.58290223332601 11.604050258294835 2 70.841896345224214 1 2 79.533527640813631 10.08434386625351 2 84.917110354544107 4.8499635650411346 2 99.0 12.785176908914256 2 40.687590333408281 18.770877703445617 2 51.39732175224308 2.3650671819798794 2 70.494140340762343 9.8302438624750419 2 80.820223771537457 17.25339915445895 2 89.05446692664367 7.6147720651114197 2 96.475072828801657 13.791941182531026 2 39.802990840228603 1.6266788644186345 2 57.81050368573618 5.0298396313558271 2 73.839689260048374 13.445310745207031 2 80.074054460841054 6.8665076861323575 2 82.685810415606682 4.7170059012930619 2 95.657883509460262 3.2515056774025508 2 34.333810141399489 11.453186908676848 2 54.219225930797471 15.46809863408232 2 64.314365680835635 10.538407512317516 2 72.760806127275373 18.771939845757728 2 93.16670199906514 9.4971953355227736 2 93.961909340902452 4.6801386718793365 2 43.219253400636511 12.811809985796108 2 56.030224713282273 5.0730503955443922 2 73.810853983118733 9.8462541514350921 2 78.10173985500235 3.2102282690479003 2 84.627722300141031 2.6215189128633893 2 96.811335601750471 5.1485525260259184 2 38.908033061333946 8.7305844682982219 2 51.947001001860826 9.1235342440133707 2 68.439416503700855 1 2 84.252361209345608 11.716214270011612 2 89.110348425796829 2.809112845099615 2 93.051647256281484 14.755815200642147 2 38.966834479591142 3.6259520694370941 2 59.878448995198504 9.374888053009288 2 71.344957475515869 6.448238222287471 2 76.883002512907069 3.6386774332152321 2 83.345457865320455 20.284947414721717 2 99.0 4.3633471823792398 2 38.220753059914578 1 2 55.916878100329093 21.384359093506944 2 64.885067497511685 16.417298616995524 2 76.102747496459259 15.38311219400722 2 87.15325276458195 15.618762816779444 2 93.102456488439842 10.317718885060792 2 41.84910681690026 21.772390911685076 2 56.593967135041638 11.501321553426651 2 72.546068051107341 3.087789730578216 2 75.309599281728993 8.0046282212986739 2 82.152936682034337 1 2 98.517531127467393 16.501679288429315 2 38.605602789145713 15.597227254886107 2 52.826436048627535 3.1829835487154061 2 68.726219572388544 7.5238794964691058 2 80.44131364516258 11.370597650894082 2 86.55044356740936 11.935757174641159 2 95.59117859077989 17.483062456871743 2 41.705310030811923 5.1577064525903102 2 57.33545512980762 4.0054796350020734 2 71.520651705765218 18.8871293771914 2 79.275401150547737 5.3458125697491239 2 82.029664747514417 8.7974879919336093 2 96.249704967609532 1 2 33.618061197976047 2.6993059086460769 2 51.986803201577793 13.15929702162274 2 68.641039010452133 18.665893892518422 2 75.599931976823228 11.604373490172053 2 90.288409282738613 10.183140380143497 2 90.917245917992688 2.6815595089321227 2 42.359167341803065 14.179668443405639 2 55.510506695172118 1 2 72.533783184420116 8.7831644436936038 2 81.39683899090258 5.9559034141378859 2 88.505229664083132 6.2662655372186222 2 95.463064885762165 10.294517479138074 2 35.609963305348884 8.9334403312901571 2 52.826196790221708 7.1880518758391627 2 69.599617453410687 6.5110087806022552 2 82.693641204079498 13.948201175940044 2 88.092283705674319 4.4660377721872555 2 90.007633242047106 15.064375945003452 2 41.744328813774118 4.1919354377018054 2 56.70416255264152 9.303450594524147 2 70.29600911323746 12.466843250787507 2 74.052870559823276 5.0968822512022038 2 85.962561592171781 18.080794756019117 2 99.0 2.5935152314293068 2 36.536561511335002 7.1596895866601358 2 56.749220607180042 18.960798581734945 2 63.326241631831927 15.57187183588116 2 77.643387510134332 17.832328106673252 2 93.412046597783956 22.318089869760357 2 91.423511969021973 6.9801617493191408 2 40.610346372602898 11.647152283844767 2 54.687508776131388 14.252067339934634 2 69.937050657822624 3.0007747157775344 2 79.297345615451377 8.3356310049427087 2 85.778469577458921 7.4539248212764768 2 99.0 10.302795591643651 2 39.489989370289159 16.902715617757764 2 51.277625742688016 5.6122679934872775 2 68.531294695834148 10.250775566114307 2 79.756849415841415 14.098185386396453 2 89.016210652683384 4.6649388644862917 2 95.299173681234407 13.590732687572448 2 38.469288850892546 4.5846499733498032 2 58.650552674883485 5.5111088647140001 2 74.226922877523378 16.459237600862625 2 75.846730718299654 4.8726051870571796 2 82.909439863591189 5.9897941236536605 2 95.358165693764136 7.7242961882475356 2 37.81860670112237 10.816310590811662 2 52.583218961929916 16.420656935136016 2 67.842059632685988 15.452551704777026 2 74.915204187758803 18.032470889984001 2 90.808057043942142 7.671057012913117 2 93.059128849040192 1.8924915682503267 2 43.135084660611533 9.1665495119660818 2 56.290588794205036 3.8663168115647641 2 74.796068053807872 12.442847389992373 2 81.206968264484757 2.05746459201008 2 86.745707466584804 1 2 98.079438004248331 9.8387473693119691 2 40.740776126200181 8.7982086808199398 2 54.029787927596431 8.824502236186369 2 67.775474066157471 5.1281078140664489 2 82.092534380612591 11.334546314161937 2 88.246516301852353 2.4583685523087602 2 93.420431554512703 13.535057138736503 2 41.089548641673979 3.5717433641457403 2 58.954135297267058 8.8016824956162427 2 71.823992106942214 11.583501270374775 2 74.418864212736551 1.8217221866839997 2 89.389187566862304 20.133944628200975 2 96.247776113771081 3.9169669191123409 2 36.603164249324003 2.9912063277242251 2 52.383299879546115 20.909187806452845 2 67.165569649474051 20.267168350580274 2 77.876286375465014 12.478966252028291 2 88.69650330361975 13.904211822868243 2 94.707742234409551 9.6572084298887617 2 41.25238471704003 16.940753740379186 2 53.78351033589427 7.0218171841437869 2 70.942372404834558 5.1213666307226839 2 77.708803357224923 7.762534050543759 2 79.148634932269871 1 2 97.694484226247425 19.720704958726181 2 38.806615830300188 11.406043794216449 2 54.640052351743158 5.9986472376052227 2 66.001498673190426 5.6377902770848252 2 82.873723103726505 9.3699708570701432 2 88.695862589115123 9.1567314301961726 2 94.478914929519163 17.19201164772846 2 39.841501033687315 5.8570248391381954 2 57.362588541604367 2.1248498702580401 2 72.845280082283352 20.303731311900876 2 75.937996704883787 1.92726743214515 2 85.049852131535829 7.8997885002537078 2 95.459903803666691 1 2 34.71527611868936 6.2581526423381373 2 50.906423210677673 12.138773370293482 2 67.558924062186236 17.170955052257092 2 76.879490296494353 12.373017127516817 2 88.739656379101888 10.299697915008037 2 91.9011575628857 2.252004798638954 2 44.781599202177119 16.10793653139422 2 52.388186506093739 2.0772882140306566 2 73.143119664720189 6.4960619031394433 2 80.140329759273371 5.0553771088186412 2 85.283036278599255 3.6267624183994944 2 95.871927866444807 11.235220844259953 2 37.566648996473369 9.8522835910345687 2 50.32293243288175 5.6143284380376546 2 72.159634525889473 4.7126641456836316 2 80.587329161847407 18.416705014379573 2 89.899578419830519 3.5132443107651872 2 90.800867880406344 16.77084284253776 2 43.966679368785208 4.9584067665462106 2 57.178743642236398 7.5773964005589027 2 69.733620662403752 15.087215882070828 2 74.974818214752815 5.2169820962193674 2 83.845806210529048 14.064516194019459 2 97.888312606137831 3.1468377476932536 2 36.616748077267353 6.2696942139829694 2 54.952327072910826 22.992177114334197 2 63.45952641946203 14.567754435202993 2 81.07001488219025 20.024069241393526 2 90.805293216780257 19.331416898367266 2 93.430432143533707 5.56723906593915 2 42.230271237609308 13.302446719787696 2 54.352877444885628 11.032048415212223 2 72.788113135950937 2.053552696901892 2 79.26723317443917 11.098499856615891 2 84.221846334638911 3.2891102480121734 2 97.653748363630442 15.130496417842478 2 40.191777997100168 19.828305782997234 2 52.327631757302321 1 2 70.443895552042719 6.9072229512606809 2 79.721765892823484 16.288423153934858 2 87.693475100437624 9.3892950145920668 2 97.478267385464576 10.854108185760747 2 39.576708791118072 2.7278516467951155 2 58.639487691198411 3.5605820602617904 2 73.36414016856564 14.917615774355216 2 79.084050509743605 6.6414500301024386 2 83.931518484621378 4.9491311052001468 2 94.851912518438596 4.7343224085904314 2 36.23047903554302 9.6527564588154942 2 51.950970493875388 14.610037070724379 2 65.825699482066184 11.769655666905958 2 74.419535798759512 21.282621525801339 2 91.856619744524679 7.8805892041130727 2 94.65550521877546 3.7873696219311941 2 41.925468430892209 11.976583174788406 2 57.530827609682149 6.3445371502030934 2 74.629457114866099 10.924179713510776 2 77.315060751573981 1.686553188236382 2 83.574791780994119 1.9781221864105378 2 97.304372644768165 5.9391078855373607 2 38.829453361363441 7.156462766386821 2 50.754910719198371 10.834410727695674 2 68.940983436605947 2.4082453176633645 2 85.107498189464337 11.195142320648733 2 90.144880728855469 2.4488446278417522 2 90.095960291890265 13.98828626996734 2 40.603792479220857 4.7212578224183313 2 59.905866317323358 10.444924665785354 2 71.365610364317632 10.268203011256313 2 77.123028629262905 2.6685147065475325 2 84.756299918125606 19.115579855724608 2 97.30318754917883 7.1223521886737426 2 37.633674561753146 2.2867519731440273 2 53.112264898826922 23.349741726092947 2 65.076540330072234 15.477985950576477 2 77.421031613296265 14.810238922908797 2 88.124182873778167 18.802529390992525 2 92.285333503881432 12.038771629041893 2 45.24676053355914 21.518974504828936 2 54.690616337880272 9.7639348723269777 2 71.64338743978854 1.9089602618300745 2 76.424902327705283 6.4390745730256986 2 82.157214108637078 1.9279812693477827 2 96.420987743930198 14.911036702732742 2 39.092321142737781 14.413717627636641 2 53.983420748742361 4.6460957335705944 2 70.810574506952008 8.84684621074