<?xml version="1.0" ?>
<VTKFile byte_order="LittleEndian" type="UnstructuredGrid" version="0.1">
<UnstructuredGrid>
<Piece NumberOfCells="0" NumberOfPoints="8">
<Points>
<DataArray NumberOfComponents="3" format="ascii" type="Float32">1.6531126476473859 1.3000000000000003 2 9.9299999999999997 1.3000000000000003 2 18.825876075534968 1.3000000000000003 2 39.052910570650006 1.3000000000000003 2 50.276471724775625 1.3000000000000003 2 65.604950658147956 1.3000000000000003 2 68.14781404631772 1.3000000000000003 2 83.218562464335051 1.3000000000000003 2 </DataArray>
</Points>
<Cells>
<DataArray Name="connectivity" format="ascii" type="Int32">0</DataArray>
<DataArray Name="offsets" format="ascii" type="Int32">0</DataArray>
<DataArray Name="types" format="ascii" type="UInt8">1</DataArray>
</Cells>
<PointData>
<DataArray Name="Points" NumberOfComponents="3" format="ascii" type="Float32">1.6531126476473859 1.3000000000000003 2 9.9299999999999997 1.3000000000000003 2 18.825876075534968 1.3000000000000003 2 39.052910570650006 1.3000000000000003 2 50.276471724775625 1.3000000000000003 2 65.604950658147956 1.3000000000000003 2 68.14781404631772 1.3000000000000003 2 83.218562464335051 1.3000000000000003 2 </DataArray>
<DataArray Name="forces" NumberOfComponents="3" format="ascii" type="Float32">-0.0006239435432442513 -9.057319776822072e-05 0.0 0.0 0.0 0.0 0.00073725957619526011 -0.00012884299073387815 0.0 0.0020143903427281111 -0.0026065321895761928 0.0 0.001237276430576752 -1.4098490300115313e-05 0.0 0.026276281499336314 -0.014485006213226825 0.0 -0.053413976541130531 -0.00032420013331327374 0.0 -0.117896018411624 -0.020292586373481105 0.0 </DataArray>
<DataArray Name="radii" format="ascii" type="Float32">1.3000000000000003 1.3000000000000003 1.3000000000000003 1.3000000000000003 1.3000000000000003 1.3000000000000003 1.3000000000000003 1.3000000000000003 </DataArray>
</PointData>
<CellData/>
</Piece>
</UnstructuredGrid>
</VTKFile>
