<?xml version="1.0" ?>
<VTKFile byte_order="LittleEndian" type="UnstructuredGrid" version="0.1">
<UnstructuredGrid>
<Piece NumberOfCells="0" NumberOfPoints="13">
<Points>
<DataArray NumberOfComponents="3" format="ascii" type="Float32">31.278395193317188 6.3371363580044333 2 87.640764570492436 6.7383104077753551 2 97.402942533167291 3.8086193442965977 2 28.794957944082928 1.393365918906393 2 60.06839512539014 7.607677350707684 2 90.86222846231334 1.393365918906393 2 97.531743533134758 8.7777086798881587 2 28.425362589596034 6.1116934096380575 2 58.694206799301689 1.393365918906393 2 98.6066340810936 1.393365918906393 2 30.037606439125831 3.8529544308527321 2 89.342096532211301 4.5798979603462202 2 98.6066340810936 6.2428410328197845 2 </DataArray>
</Points>
<Cells>
<DataArray Name="connectivity" format="ascii" type="Int32">0</DataArray>
<DataArray Name="offsets" format="ascii" type="Int32">0</DataArray>
<DataArray Name="types" format="ascii" type="UInt8">1</DataArray>
</Cells>
<PointData>
<DataArray Name="Points" NumberOfComponents="3" format="ascii" type="Float32">31.278395193317188 6.3371363580044333 2 87.640764570492436 6.7383104077753551 2 97.402942533167291 3.8086193442965977 2 28.794957944082928 1.393365918906393 2 60.06839512539014 7.607677350707684 2 90.86222846231334 1.393365918906393 2 97.531743533134758 8.7777086798881587 2 28.425362589596034 6.1116934096380575 2 58.694206799301689 1.393365918906393 2 98.6066340810936 1.393365918906393 2 30.037606439125831 3.8529544308527321 2 89.342096532211301 4.5798979603462202 2 98.6066340810936 6.2428410328197845 2 </DataArray>
<DataArray Name="forces" NumberOfComponents="3" format="ascii" type="Float32">0.00045199291630211493 0.0097552976973622474 0.0 -0.023914870576759725 0.030514087444294562 0.0 0.0060544331806871091 0.016803141426554827 0.0 -0.014273859830194727 -0.033549493459795063 0.0 -0.012124353837710974 0.061118111933759309 0.0 0.0025655039358973009 -0.14906769152928226 0.0 -0.013862716370270641 0.032871092749552328 0.0 -0.0068809834405185151 0.010358938295833165 0.0 0.045045456904801995 0.0 0.0 0.2363271393532069 -0.080786679777391859 0.0 -0.0048116302881957007 0.0096481639289741107 0.0 -0.0091840054106539712 0.041012339901123358 0.0 0.11979873363073651 0.03284672983176587 0.0 </DataArray>
<DataArray Name="radii" format="ascii" type="Float32">1.393365918906393 1.393365918906393 1.393365918906393 1.393365918906393 1.393365918906393 1.393365918906393 1.393365918906393 1.393365918906393 1.393365918906393 1.393365918906393 1.393365918906393 1.393365918906393 1.393365918906393 </DataArray>
</PointData>
<CellData/>
</Piece>
</UnstructuredGrid>
</VTKFile>
