<?xml version="1.0" ?>
<VTKFile byte_order="LittleEndian" type="UnstructuredGrid" version="0.1">
<UnstructuredGrid>
<Piece NumberOfCells="0" NumberOfPoints="193">
<Points>
<DataArray NumberOfComponents="3" format="ascii" type="Float32">0 0 0 30.659522561991412 13.885474508979213 2 48.862807783791567 9.0306328387319255 2 62.573740493066744 16.045733598356573 2 34.420753266401725 8.1556970260121826 2 45.839830592986218 5.9273584831062474 2 60.378815270530922 20.169283133077705 2 29.989313866611983 1.5999999999999999 2 49.49783511962729 3.5028645322883745 2 66.05721136423162 4.4519653796539131 2 36.68957201963034 15.237127137468068 2 45.867277817030605 10.878876709554115 2 60.928410782656329 1.5999999999999999 2 32.355913406104527 22.76283848074004 2 48.613667485212986 10.393293680151176 2 61.014316086052709 9.7019610170478128 2 34.278880806364135 1.5999999999999999 2 43.045850748032379 1.5999999999999999 2 57.570092147515211 12.280032459458125 2 29.34827040857499 9.0086580453725009 2 44.247167074927525 3.9537262094568808 2 66.701169264819526 9.1779918593162506 2 33.021020848759996 12.068511477124471 2 47.069244382422994 17.501896449511953 2 65.366660243709873 1.5999999999999999 2 31.707021756811404 15.378995059334617 2 50.468363524571636 9.447110276252797 2 61.59771210966548 11.08660344528302 2 34.058983624746745 5.4878798475914472 2 44.970419983565094 9.7318857774095751 2 59.37304966536442 14.988195793461639 2 31.540445289823143 6.5278352187779873 2 49.35703479250661 6.7613163284298468 2 65.569179008893698 7.2016852396333109 2 38.889122486561064 22.85163630260805 2 43.627977919625899 16.850229379986892 2 60.512565907386744 3.9369737321793847 2 34.669263275265727 15.416041477381627 2 49.708478111052997 14.431477101021065 2 60.334359213078429 5.1261002160798412 2 31.049949111845741 2.8159841369707821 2 43.09249101347114 4.2395281988661706 2 56.495190507060656 13.624003333392277 2 33.239488939812837 7.1961744525994078 2 48.214569742806034 3.1354758746044293 2 63.101380892408145 7.7014554327244999 2 35.885070715474498 11.87019376079413 2 48.694633597153768 20.799051273492104 2 63.462106606053219 5.5900948390017211 2 30.339904967536842 11.187601803452869 2 46.114970570655053 7.7625505808793305 2 61.970402094018915 18.195370842238226 2 33.1363401928241 10.49980823534049 2 46.787504421649061 4.1301239623442045 2 62.706927606897978 20.421467486490894 2 29.628425791777399 4.1778936789998067 2 50.630376638093722 1.5999999999999999 2 66.928506234566527 3.0599563771053155 2 35.270362550495491 19.463264697282003 2 46.987101031646176 12.818224049279875 2 62.749780562042943 2.7697412706163962 2 34.717918887258094 22.322151220606749 2 47.547970971889306 15.009431529310175 2 63.228423758998865 11.656710618456504 2 35.273092318381757 1.5999999999999999 2 44.671555786127783 1.5999999999999999 2 59.861924910091446 12.71157990242313 2 30.690404021375244 8.2059284663673324 2 46.777616275524977 2.7818999738688155 2 67.863771037581301 10.882137352753485 2 31.746573261374145 13.017369847837948 2 46.771136521262193 19.762954131126968 2 63.146759041458139 1.5999999999999999 2 31.155463250467484 17.968282508464519 2 51.571351902232763 7.9150800799236585 2 61.353260809899965 14.054690513930067 2 32.201906452770949 4.552365041248386 2 44.469275526771497 11.305142319199408 2 58.834080963592022 18.635066128518286 2 29.380913269448762 5.5192740364683175 2 47.076388235312756 5.4430399741194613 2 64.175998377706406 3.0610066345002949 2 39.304738706465599 18.06456174702674 2 44.995298187295312 19.18441524811605 2 58.807722069313286 1.5999999999999999 2 33.413392997106278 20.038308652117301 2 48.528121565277665 16.419065362924279 2 61.102479814529701 6.5478431125556122 2 32.147350584381158 1.5999999999999999 2 44.318144758050863 5.5765955069664939 2 55.155606302780463 17.418146816182542 2 31.935126592798945 9.4144158542779586 2 48.737292204287186 1.5999999999999999 2 65.442665865651904 8.6822253478545175 2 37.436629866283191 11.820436817833116 2 51.148055802363821 21.322619436450655 2 61.79355927052363 4.9839494953602088 2 29.319529087008565 14.732733999214213 2 48.257192906308113 7.7737622834005506 2 63.96828551817508 17.787293363404999 2 34.651179860657024 9.5165856176469106 2 44.846224208562091 6.9451739029443171 2 61.423343662476334 22.696664241798096 2 29.573153259483387 2.7869525419316949 2 50.704712847457337 3.9090104469475508 2 65.50284395257421 3.2643122963490341 2 35.594956907005404 16.842433311573711 2 47.065818171824148 9.9100736434577641 2 61.947521007647573 1.5999999999999999 2 31.609056178816981 20.051413492600521 2 47.266286527966869 11.449161392983891 2 62.20306785387492 8.7754531103552615 2 33.158344352372609 1.5999999999999999 2 42.100453412589353 1.5999999999999999 2 58.426413467460655 11.118880872901467 2 28.991865625228396 10.472637688908417 2 45.495614705404961 4.5008109966957637 2 67.79256221355844 8.2932888473100572 2 34.443272119252129 12.97613863285196 2 46.046684298849968 15.623896971445166 2 66.37747399835834 1.5999999999999999 2 33.104721404297386 15.544669059217112 2 50.072642874555555 8.0599550205226702 2 61.417476193749629 12.652315299614918 2 32.747254741137191 5.8465309137368875 2 44.748257894985336 8.3620762576426753 2 57.488697974608002 14.796970030050494 2 30.769649150853891 5.4587471207825846 2 48.481382914248734 5.9009811847187441 2 64.234744929514108 6.9216513247260156 2 38.238037637634399 19.833503634336346 2 45.219718341519282 17.191716297490562 2 59.633836192477737 2.838923198052516 2 33.105207119267682 13.824982223649576 2 50.170697252302702 12.665980048887773 2 59.717919384640631 6.6005029197346357 2 32.461976918714271 3.1305437913835483 2 43.854457860490768 1.7930605297907687 2 55.43800315465986 14.980417827225113 2 32.014970136950048 7.7576620376252121 2 48.321562599907487 4.4167463325259497 2 62.426974694795305 6.5017392284849711 2 35.430496925124423 14.058992307363111 2 49.207804892365992 23.308313583042281 2 64.453533418190176 4.4739756285521475 2 29.908212220733567 12.594350025331758 2 46.943063584758512 8.6590578305538184 2 60.280947603092478 17.414760207043145 2 33.242195384165605 8.9428414629271487 2 45.270390019686303 3.1294476411084888 2 64.576850221926662 20.002147206988873 2 28.84686187940915 1.5999999999999999 2 49.665656021451767 1.5999999999999999 2 67.453076151889363 1.5999999999999999 2 36.897695972082452 18.379611984482892 2 45.984863940328687 13.785379848675515 2 61.570454158291071 3.2861170651891234 2 36.712429865553624 21.357199118958746 2 48.486969220119022 13.667516935214385 2 62.899561872135763 10.173834414589608 2 36.256192980478723 1.5999999999999999 2 45.631258743989818 1.5999999999999999 2 58.632567960102541 13.463145975798465 2 30.11107918519669 6.8996368756092314 2 46.684770252953903 1.5999999999999999 2 66.851248568704904 11.971027511672329 2 31.710896193009301 11.193126067535713 2 48.800379880955411 18.483397339745597 2 64.286584684348981 1.5999999999999999 2 32.661744383229468 17.546766382694205 2 52.093382408806185 6.2903590212516134 2 60.912534667625842 15.571581656193873 2 33.501478708676721 4.2226772932755825 2 43.13485924630367 10.310361837283027 2 58.347882260927392 16.439280500407566 2 30.979570655715435 4.1674296801787412 2 47.238907541534573 6.8697888628575212 2 65.299058892685451 5.7450282500896517 2 37.478169367192045 16.760270798349239 2 46.238093997746347 22.329927566898494 2 59.932902325334901 1.5999999999999999 2 34.146395570163115 17.697789404826199 2 50.10132814845911 16.261548076341029 2 60.99917265644681 7.9992955533447532 2 31.057158501046434 1.5999999999999999 2 43.462053914976231 6.9220013169921177 2 53.168903119588315 16.977601376900882 2 30.63010389446055 9.7292340339797736 2 47.755952662245662 1.5999999999999999 2 63.960496084653698 8.8761433625117103 2 36.717319863529738 13.155772209710626 2 50.471843774858719 18.708798916980903 2 62.957640709192361 4.2994938910386793 2 </DataArray>
</Points>
<Cells>
<DataArray Name="connectivity" format="ascii" type="Int32">0</DataArray>
<DataArray Name="offsets" format="ascii" type="Int32">0</DataArray>
<DataArray Name="types" format="ascii" type="UInt8">1</DataArray>
</Cells>
<PointData>
<DataArray Name="Points" NumberOfComponents="3" format="ascii" type="Float32">0 0 0 30.659522561991412 13.885474508979213 2 48.862807783791567 9.0306328387319255 2 62.573740493066744 16.045733598356573 2 34.420753266401725 8.1556970260121826 2 45.839830592986218 5.9273584831062474 2 60.378815270530922 20.169283133077705 2 29.989313866611983 1.5999999999999999 2 49.49783511962729 3.5028645322883745 2 66.05721136423162 4.4519653796539131 2 36.68957201963034 15.237127137468068 2 45.867277817030605 10.878876709554115 2 60.928410782656329 1.5999999999999999 2 32.355913406104527 22.76283848074004 2 48.613667485212986 10.393293680151176 2 61.014316086052709 9.7019610170478128 2 34.278880806364135 1.5999999999999999 2 43.045850748032379 1.5999999999999999 2 57.570092147515211 12.280032459458125 2 29.34827040857499 9.0086580453725009 2 44.247167074927525 3.9537262094568808 2 66.701169264819526 9.1779918593162506 2 33.021020848759996 12.068511477124471 2 47.069244382422994 17.501896449511953 2 65.366660243709873 1.5999999999999999 2 31.707021756811404 15.378995059334617 2 50.468363524571636 9.447110276252797 2 61.59771210966548 11.08660344528302 2 34.058983624746745 5.4878798475914472 2 44.970419983565094 9.7318857774095751 2 59.37304966536442 14.988195793461639 2 31.540445289823143 6.5278352187779873 2 49.35703479250661 6.7613163284298468 2 65.569179008893698 7.2016852396333109 2 38.889122486561064 22.85163630260805 2 43.627977919625899 16.850229379986892 2 60.512565907386744 3.9369737321793847 2 34.669263275265727 15.416041477381627 2 49.708478111052997 14.431477101021065 2 60.334359213078429 5.1261002160798412 2 31.049949111845741 2.8159841369707821 2 43.09249101347114 4.2395281988661706 2 56.495190507060656 13.624003333392277 2 33.239488939812837 7.1961744525994078 2 48.214569742806034 3.1354758746044293 2 63.101380892408145 7.7014554327244999 2 35.885070715474498 11.87019376079413 2 48.694633597153768 20.799051273492104 2 63.462106606053219 5.5900948390017211 2 30.339904967536842 11.187601803452869 2 46.114970570655053 7.7625505808793305 2 61.970402094018915 18.195370842238226 2 33.1363401928241 10.49980823534049 2 46.787504421649061 4.1301239623442045 2 62.706927606897978 20.421467486490894 2 29.628425791777399 4.1778936789998067 2 50.630376638093722 1.5999999999999999 2 66.928506234566527 3.0599563771053155 2 35.270362550495491 19.463264697282003 2 46.987101031646176 12.818224049279875 2 62.749780562042943 2.7697412706163962 2 34.717918887258094 22.322151220606749 2 47.547970971889306 15.009431529310175 2 63.228423758998865 11.656710618456504 2 35.273092318381757 1.5999999999999999 2 44.671555786127783 1.5999999999999999 2 59.861924910091446 12.71157990242313 2 30.690404021375244 8.2059284663673324 2 46.777616275524977 2.7818999738688155 2 67.863771037581301 10.882137352753485 2 31.746573261374145 13.017369847837948 2 46.771136521262193 19.762954131126968 2 63.146759041458139 1.5999999999999999 2 31.155463250467484 17.968282508464519 2 51.571351902232763 7.9150800799236585 2 61.353260809899965 14.054690513930067 2 32.201906452770949 4.552365041248386 2 44.469275526771497 11.305142319199408 2 58.834080963592022 18.635066128518286 2 29.380913269448762 5.5192740364683175 2 47.076388235312756 5.4430399741194613 2 64.175998377706406 3.0610066345002949 2 39.304738706465599 18.06456174702674 2 44.995298187295312 19.18441524811605 2 58.807722069313286 1.5999999999999999 2 33.413392997106278 20.038308652117301 2 48.528121565277665 16.419065362924279 2 61.102479814529701 6.5478431125556122 2 32.147350584381158 1.5999999999999999 2 44.318144758050863 5.5765955069664939 2 55.155606302780463 17.418146816182542 2 31.935126592798945 9.4144158542779586 2 48.737292204287186 1.5999999999999999 2 65.442665865651904 8.6822253478545175 2 37.436629866283191 11.820436817833116 2 51.148055802363821 21.322619436450655 2 61.79355927052363 4.9839494953602088 2 29.319529087008565 14.732733999214213 2 48.257192906308113 7.7737622834005506 2 63.96828551817508 17.787293363404999 2 34.651179860657024 9.5165856176469106 2 44.846224208562091 6.9451739029443171 2 61.423343662476334 22.696664241798096 2 29.573153259483387 2.7869525419316949 2 50.704712847457337 3.9090104469475508 2 65.50284395257421 3.2643122963490341 2 35.594956907005404 16.842433311573711 2 47.065818171824148 9.9100736434577641 2 61.947521007647573 1.5999999999999999 2 31.609056178816981 20.051413492600521 2 47.266286527966869 11.449161392983891 2 62.20306785387492 8.7754531103552615 2 33.158344352372609 1.5999999999999999 2 42.100453412589353 1.5999999999999999 2 58.426413467460655 11.118880872901467 2 28.991865625228396 10.472637688908417 2 45.495614705404961 4.5008109966957637 2 67.79256221355844 8.2932888473100572 2 34.443272119252129 12.97613863285196 2 46.046684298849968 15.623896971445166 2 66.37747399835834 1.5999999999999999 2 33.104721404297386 15.544669059217112 2 50.072642874555555 8.0599550205226702 2 61.417476193749629 12.652315299614918 2 32.747254741137191 5.8465309137368875 2 44.748257894985336 8.3620762576426753 2 57.488697974608002 14.796970030050494 2 30.769649150853891 5.4587471207825846 2 48.481382914248734 5.9009811847187441 2 64.234744929514108 6.9216513247260156 2 38.238037637634399 19.833503634336346 2 45.219718341519282 17.191716297490562 2 59.633836192477737 2.838923198052516 2 33.105207119267682 13.824982223649576 2 50.170697252302702 12.665980048887773 2 59.717919384640631 6.6005029197346357 2 32.461976918714271 3.1305437913835483 2 43.854457860490768 1.7930605297907687 2 55.43800315465986 14.980417827225113 2 32.014970136950048 7.7576620376252121 2 48.321562599907487 4.4167463325259497 2 62.426974694795305 6.5017392284849711 2 35.430496925124423 14.058992307363111 2 49.207804892365992 23.308313583042281 2 64.453533418190176 4.4739756285521475 2 29.908212220733567 12.594350025331758 2 46.943063584758512 8.6590578305538184 2 60.280947603092478 17.414760207043145 2 33.242195384165605 8.9428414629271487 2 45.270390019686303 3.1294476411084888 2 64.576850221926662 20.002147206988873 2 28.84686187940915 1.5999999999999999 2 49.665656021451767 1.5999999999999999 2 67.453076151889363 1.5999999999999999 2 36.897695972082452 18.379611984482892 2 45.984863940328687 13.785379848675515 2 61.570454158291071 3.2861170651891234 2 36.712429865553624 21.357199118958746 2 48.486969220119022 13.667516935214385 2 62.899561872135763 10.173834414589608 2 36.256192980478723 1.5999999999999999 2 45.631258743989818 1.5999999999999999 2 58.632567960102541 13.463145975798465 2 30.11107918519669 6.8996368756092314 2 46.684770252953903 1.5999999999999999 2 66.851248568704904 11.971027511672329 2 31.710896193009301 11.193126067535713 2 48.800379880955411 18.483397339745597 2 64.286584684348981 1.5999999999999999 2 32.661744383229468 17.546766382694205 2 52.093382408806185 6.2903590212516134 2 60.912534667625842 15.571581656193873 2 33.501478708676721 4.2226772932755825 2 43.13485924630367 10.310361837283027 2 58.347882260927392 16.439280500407566 2 30.979570655715435 4.1674296801787412 2 47.238907541534573 6.8697888628575212 2 65.299058892685451 5.7450282500896517 2 37.478169367192045 16.760270798349239 2 46.238093997746347 22.329927566898494 2 59.932902325334901 1.5999999999999999 2 34.146395570163115 17.697789404826199 2 50.10132814845911 16.261548076341029 2 60.99917265644681 7.9992955533447532 2 31.057158501046434 1.5999999999999999 2 43.462053914976231 6.9220013169921177 2 53.168903119588315 16.977601376900882 2 30.63010389446055 9.7292340339797736 2 47.755952662245662 1.5999999999999999 2 63.960496084653698 8.8761433625117103 2 36.717319863529738 13.155772209710626 2 50.471843774858719 18.708798916980903 2 62.957640709192361 4.2994938910386793 2 </DataArray>
<DataArray Name="forces" NumberOfComponents="3" format="ascii" type="Float32">0 0 0 0.053834167344183892 0.65245777043031561 0.0 0.11130844410160642 0.45275433987679159 0.0 0.020135635522772977 0.63578295918825534 0.0 0.10988561554933007 0.43488186136006307 0.0 0.024752218879787069 0.31800547384956229 0.0 0.055136771896527825 0.70908449255162842 0.0 0.084470468982142499 -4.8522156945646335 0.0 0.15482146809995911 0.3420848534595673 0.0 0.0087087434393972318 0.34455832039149198 0.0 0.10256024239038083 0.58648341421435124 0.0 -0.0018140669806627763 0.41674827556476185 0.0 0.094003233751220439 -3.7186802919474626 0.0 -0.062234405821898417 1.0299768487129177 0.0 -0.07277483302504939 0.44765228666442414 0.0 0.10254143930233717 0.35534082299823888 0.0 -0.18466779421630439 -4.3401692531096687 0.0 -0.26362122894636952 -4.1704223083832623 0.0 0.071981142238731435 0.65905595710958154 0.0 -0.013062565430218998 0.29955485021702921 0.0 -0.14928089672579259 0.0394281850322796 0.0 0.08299886603133122 0.53359870060846437 0.0 0.046047199667078598 0.53246909151553434 0.0 0.058714058139734959 0.78408704591298795 0.0 -0.007409267831359756 -3.8521694469322618 0.0 0.0786821067441002 0.60931684243770545 0.0 -0.061466863553543138 0.5538729780242313 0.0 0.097629677103991758 0.47910482650856617 0.0 0.026435355227847637 0.25340363396985177 0.0 -0.11792065487176723 0.53313088291698496 0.0 -0.0056389677369126368 0.54683462620895318 0.0 -0.019576254835839572 0.56236383950881352 0.0 0.04278392516877072 0.28709421856004302 0.0 0.016304490927739002 0.53153654036365794 0.0 0.19067296497210362 0.90719010922205878 0.0 0.0054968219543592989 0.76874415769016424 0.0 -0.11970317171859046 0.39047608875670892 0.0 0.024226550455016663 0.62307671159475753 0.0 0.081268333635315271 0.61715148400501207 0.0 0.019605625764846202 0.36740009256031303 0.0 -0.096669897961878304 0.27860150441866854 0.0 0.05142348290657138 0.27720759430417524 0.0 -0.003948919216714919 0.5722038933997694 0.0 0.055438144800598894 0.25647342044070076 0.0 0.090051400195299225 0.16223661629972264 0.0 -0.034730055953504757 0.26764801113403269 0.0 0.048844387886036511 0.48347522351413241 0.0 0.01298523913221894 0.78004147955983227 0.0 0.079268062893460223 0.31393794354331561 0.0 -0.030992157479776905 0.6633323505244697 0.0 -0.082855713437610945 0.48337804004003071 0.0 0.11445047658677378 0.72057174275703484 0.0 -0.01934872364181317 0.41664679128575072 0.0 0.12371019233266253 0.26743976811178022 0.0 0.037091327819362974 0.9273855530272852 0.0 -0.005910476899388839 0.31247806322152882 0.0 0.080840300327590819 -4.2431474946246572 0.0 0.1130024197450807 0.35923035808270665 0.0 0.039563334362154756 0.84699182195175304 0.0 0.079652672018481141 0.57107082633392647 0.0 -0.14302706515483637 0.14345461091049483 0.0 0.1261115416999905 1.0658063581136816 0.0 0.025695589084017145 0.60162346559693392 0.0 -0.029638380286587898 0.58697399808107398 0.0 -0.20395059899763787 -4.0110007566955082 0.0 0.34982077870339756 -3.9288314763976859 0.0 0.0024353141875328929 0.33991432913473396 0.0 -0.047919382982322803 0.50388343342159003 0.0 -0.02513210615924355 0.36189843252231002 0.0 -0.017768351747865396 0.53869941324483261 0.0 -0.037024438126350326 0.41111570155153088 0.0 -0.10012351137455687 0.8198871080335054 0.0 0.12916134583456623 -4.3912297319654039 0.0 0.078127900424837415 0.72472935812312023 0.0 0.024517500918993941 0.50124559889532616 0.0 0.030169702858172665 0.56533826311998459 0.0 -0.0032168860992371432 0.34776477607371598 0.0 -0.078431575738338255 0.5766454841183114 0.0 0.063932767993186479 0.73513779978866389 0.0 0.20045028331804834 0.34768918132895865 0.0 -0.019886884836145924 0.23755990293669704 0.0 -0.013236749198474396 0.33592983540177324 0.0 0.23500339092195133 0.68601887103066472 0.0 -0.10207594277480753 0.73202096164219188 0.0 0.10878507269297755 -4.5612486383399169 0.0 0.065414629349726139 0.98962907058759875 0.0 0.045673217161838697 0.70327485249445443 0.0 -0.0072129228710375581 0.38873680630683594 0.0 -0.016607930548613314 -4.4126502395741412 0.0 0.038604797369382826 0.26727770449673827 0.0 -0.045681713688645154 0.71215765600602021 0.0 0.019701250579565288 0.46896282854010179 0.0 0.040419231148108192 -3.741154669561638 0.0 0.039603120980002064 0.54938793393964613 0.0 -0.085006639229739056 0.52608265191083148 0.0 -0.0070960213981942633 0.95414945572380505 0.0 0.091158196860442908 0.33622833444141531 0.0 -0.085190721668585989 0.58087784021222422 0.0 0.088761118855768872 0.39350627980613662 0.0 0.12148209580931248 0.75028237487548144 0.0 0.012394944076917325 0.49794066904623846 0.0 -0.10868101408369046 0.18335616392310514 0.0 -0.10902649807267611 0.94761578110714373 0.0 -0.083844170205537472 0.25540788291271072 0.0 0.10502892347003479 0.36033775303965077 0.0 0.089229307476377417 0.24079669587675537 0.0 -0.044567912270891075 0.67348702607036492 0.0 -0.09584033877948038 0.39454861311109091 0.0 0.066739219324820159 -4.1682907495711001 0.0 0.031869039087810302 0.83610648157387968 0.0 -0.070135809310657049 0.43055541487708548 0.0 0.13426007272372664 0.43515805810469149 0.0 -0.058618801394829445 -4.3284752125461061 0.0 -0.070783016440249841 -4.0251897898650251 0.0 0.055138366373434944 0.5916372844724066 0.0 0.082320643828154072 0.4350123790246066 0.0 -0.07705449100006212 0.11444446775014049 0.0 0.10273647173003853 0.49423611145770074 0.0 0.088612557185086871 0.45545463774698625 0.0 0.067893133883517087 0.62147314228753614 0.0 -0.010388660192150123 -3.8910130269924794 0.0 0.027871201421159231 0.57791876230430095 0.0 0.044505947574872258 0.41073848947790387 0.0 0.0041060064096906101 0.56214807858759397 0.0 -0.043138543392079787 0.34427453204196812 0.0 0.21137948968067 0.39887370219570062 0.0 -0.016867886720411285 0.62188963673291608 0.0 0.20606734172733399 0.29754421755821558 0.0 -0.17730874241555211 0.38945305553973963 0.0 0.036434580775625031 0.36364817359427642 0.0 0.051216117341149066 0.7141178384816993 0.0 0.048127311403923234 0.64210316057908456 0.0 0.1151649474976793 0.27398105803984596 0.0 0.018084042485678159 0.49721095970874729 0.0 0.035124698088101924 0.45055187063504198 0.0 0.018871533888837666 0.49222223558015721 0.0 0.05383477985377183 0.3380672573472655 0.0 0.033275910392655206 -1.8213629886810618 0.0 0.092473245264706794 0.63760688864095538 0.0 0.041302675161086155 0.54341203085833112 0.0 0.15190992014774241 0.19059392878419598 0.0 -0.038150843624228686 0.20735439146431933 0.0 -0.046760802295200188 0.59426704983814449 0.0 -0.10462104461831642 0.95467760141660341 0.0 0.13176817092438875 0.2934701700257738 0.0 -0.003620868921947476 0.67221762794736983 0.0 0.25156031868710116 0.27352750517053837 0.0 0.045095039027777339 0.64668350613032333 0.0 0.058469882146567065 0.32097798089050489 0.0 -0.18963219099063136 0.38928058418484268 0.0 0.055519228879246207 0.78578176094650831 0.0 0.0018527926133886652 -4.6438043365598469 0.0 0.034386948879755908 -3.5716686064853209 0.0 -0.036248580550355167 -3.7320145949450367 0.0 0.07951936218854827 0.73228260607640405 0.0 -0.0037056467023305339 0.58172045146190732 0.0 0.018827601447783726 0.57516175009453896 0.0 0.17031098223212612 0.86462738536958039 0.0 0.098560298893965795 0.63515265042802194 0.0 0.11664398801041909 0.5227382756902228 0.0 -0.20027168474797041 -3.855258066004124 0.0 0.13952943283877062 -4.0777826252026248 0.0 0.12347545706309884 0.61993192520540985 0.0 0.045742749435292628 0.37143872447269149 0.0 0.058834062079046845 -4.3299770872305654 0.0 0.078755999032845053 0.66818717490228319 0.0 0.050989520565015045 0.41934514292821801 0.0 0.069642797255639932 0.75235426572582531 0.0 0.038116775644487295 -4.0144371893962489 0.0 0.021785546225808528 0.75915274807068944 0.0 0.00011547923395349713 0.38607534794969367 0.0 0.0054849156233232055 0.58876263562492759 0.0 0.036238394745399249 0.21247966045989111 0.0 -0.060743772355389566 0.38600356643307687 0.0 -0.0058825313546065905 0.64420478088329303 0.0 -0.045482765896089183 0.15381169572551506 0.0 -0.075495656453938242 0.35096060705151388 0.0 0.093282328959738869 0.48161254463244202 0.0 -0.1020450965499512 0.73980206785210545 0.0 0.15671150621270497 1.0309518171060559 0.0 0.099035450245190004 -4.2795311939175713 0.0 0.020724733069433787 0.75400600904302006 0.0 0.056429230033073416 0.63254003932358138 0.0 0.05402045173501073 0.42864270146039418 0.0 0.13989747368104599 -4.5938561176522548 0.0 -0.0093051592781828729 0.3241757961778125 0.0 -0.001385020045180485 0.59077015446164161 0.0 -0.054743127872392439 0.59602250877603957 0.0 0.016504220898302169 -4.2085690363692914 0.0 0.0001245844315270056 0.35506668045586687 0.0 -0.023151969797175653 0.6129409602907071 0.0 0.087943510644399162 0.80747564716626785 0.0 0.17098199555112126 0.21601367642280994 0.0 </DataArray>
<DataArray Name="radii" format="ascii" type="Float32">0 1.5999999999999999 1.5999999999999999 1.5999999999999999 1.5999999999999999 1.5999999999999999 1.5999999999999999 1.5999999999999999 1.5999999999999999 1.5999999999999999 1.5999999999999999 1.5999999999999999 1.5999999999999999 1.5999999999999999 1.5999999999999999 1.5999999999999999 1.5999999999999999 1.5999999999999999 1.5999999999999999 1.5999999999999999 1.5999999999999999 1.5999999999999999 1.5999999999999999 1.5999999999999999 1.5999999999999999 1.5999999999999999 1.5999999999999999 1.5999999999999999 1.5999999999999999 1.5999999999999999 1.5999999999999999 1.5999999999999999 1.5999999999999999 1.5999999999999999 1.5999999999999999 1.5999999999999999 1.5999999999999999 1.5999999999999999 1.5999999999999999 1.5999999999999999 1.5999999999999999 1.5999999999999999 1.5999999999999999 1.5999999999999999 1.5999999999999999 1.5999999999999999 1.5999999999999999 1.5999999999999999 1.5999999999999999 1.5999999999999999 1.5999999999999999 1.5999999999999999 1.5999999999999999 1.5999999999999999 1.5999999999999999 1.5999999999999999 1.5999999999999999 1.5999999999999999 1.5999999999999999 1.5999999999999999 1.5999999999999999 1.5999999999999999 1.5999999999999999 1.5999999999999999 1.5999999999999999 1.5999999999999999 1.5999999999999999 1.5999999999999999 1.5999999999999999 1.5999999999999999 1.5999999999999999 1.5999999999999999 1.5999999999999999 1.5999999999999999 1.5999999999999999 1.5999999999999999 1.5999999999999999 1.5999999999999999 1.5999999999999999 1.5999999999999999 1.5999999999999999 1.5999999999999999 1.5999999999999999 1.5999999999999999 1.5999999999999999 1.5999999999999999 1.5999999999999999 1.5999999999999999 1.5999999999999999 1.5999999999999999 1.5999999999999999 1.5999999999999999 1.5999999999999999 1.5999999999999999 1.5999999999999999 1.5999999999999999 1.5999999999999999 1.5999999999999999 1.5999999999999999 1.5999999999999999 1.5999999999999999 1.5999999999999999 1.5999999999999999 1.5999999999999999 1.5999999999999999 1.5999999999999999 1.5999999999999999 1.5999999999999999 1.5999999999999999 1.5999999999999999 1.5999999999999999 1.5999999999999999 1.5999999999999999 1.5999999999999999 1.5999999999999999 1.5999999999999999 1.5999999999999999 1.5999999999999999 1.5999999999999999 1.5999999999999999 1.5999999999999999 1.5999999999999999 1.5999999999999999 1.5999999999999999 1.5999999999999999 1.5999999999999999 1.5999999999999999 1.5999999999999999 1.5999999999999999 1.5999999999999999 1.5999999999999999 1.5999999999999999 1.5999999999999999 1.5999999999999999 1.5999999999999999 1.5999999999999999 1.5999999999999999 1.5999999999999999 1.5999999999999999 1.5999999999999999 1.5999999999999999 1.5999999999999999 1.5999999999999999 1.5999999999999999 1.5999999999999999 1.5999999999999999 1.5999999999999999 1.5999999999999999 1.5999999999999999 1.5999999999999999 1.5999999999999999 1.5999999999999999 1.5999999999999999 1.5999999999999999 1.5999999999999999 1.5999999999999999 1.5999999999999999 1.5999999999999999 1.5999999999999999 1.5999999999999999 1.5999999999999999 1.5999999999999999 1.5999999999999999 1.5999999999999999 1.5999999999999999 1.5999999999999999 1.5999999999999999 1.5999999999999999 1.5999999999999999 1.5999999999999999 1.5999999999999999 1.5999999999999999 1.5999999999999999 1.5999999999999999 1.5999999999999999 1.5999999999999999 1.5999999999999999 1.5999999999999999 1.5999999999999999 1.5999999999999999 1.5999999999999999 1.5999999999999999 1.5999999999999999 1.5999999999999999 1.5999999999999999 1.5999999999999999 1.5999999999999999 1.5999999999999999 1.5999999999999999 1.5999999999999999 1.5999999999999999 1.5999999999999999 1.5999999999999999 </DataArray>
</PointData>
<CellData/>
</Piece>
</UnstructuredGrid>
</VTKFile>
