<?xml version="1.0" ?>
<VTKFile byte_order="LittleEndian" type="UnstructuredGrid" version="0.1">
<UnstructuredGrid>
<Piece NumberOfCells="0" NumberOfPoints="16">
<Points>
<DataArray NumberOfComponents="3" format="ascii" type="Float32">1.3508657626710003 5.8351759669161245 2 9.2221158655292168 1.3508657626710003 2 18.644261653154597 1.3508657626710003 2 40.132463786286777 1.3508657626710003 2 50.145056312440872 6.0990326918775999 2 63.050389544529928 1.3508657626710003 2 67.847374116008567 8.2327665205601814 2 83.913946108398704 1.3508657626710003 2 1.3508657626710003 1.3508657626710003 2 10.430094552059449 3.8085636814582124 2 19.656629651706805 6.378407720646722 2 39.005890003629936 3.6202130409299147 2 47.949652174065172 5.5826184185215384 2 65.1123280644197 1.3508657626710003 2 66.537769709412657 6.0672421608077327 2 84.393310224329582 5.9806866569585431 2 </DataArray>
</Points>
<Cells>
<DataArray Name="connectivity" format="ascii" type="Int32">0</DataArray>
<DataArray Name="offsets" format="ascii" type="Int32">0</DataArray>
<DataArray Name="types" format="ascii" type="UInt8">1</DataArray>
</Cells>
<PointData>
<DataArray Name="Points" NumberOfComponents="3" format="ascii" type="Float32">1.3508657626710003 5.8351759669161245 2 9.2221158655292168 1.3508657626710003 2 18.644261653154597 1.3508657626710003 2 40.132463786286777 1.3508657626710003 2 50.145056312440872 6.0990326918775999 2 63.050389544529928 1.3508657626710003 2 67.847374116008567 8.2327665205601814 2 83.913946108398704 1.3508657626710003 2 1.3508657626710003 1.3508657626710003 2 10.430094552059449 3.8085636814582124 2 19.656629651706805 6.378407720646722 2 39.005890003629936 3.6202130409299147 2 47.949652174065172 5.5826184185215384 2 65.1123280644197 1.3508657626710003 2 66.537769709412657 6.0672421608077327 2 84.393310224329582 5.9806866569585431 2 </DataArray>
<DataArray Name="forces" NumberOfComponents="3" format="ascii" type="Float32">-0.38003329186266288 0.19182255456858749 0.0 -0.1016677234755296 -0.083619574801122296 0.0 0.00031167250389081691 -0.23364552292529753 0.0 0.036673884037610766 -0.63884404359192815 0.0 0.03118414609213005 0.065539365538323652 0.0 -0.02799082826443379 -0.14760764936983645 0.0 0.087287294870331933 0.21453752610451482 0.0 0.069009280518927962 -0.14459084432227984 0.0 -0.14926757943086258 -0.1202667101649659 0.0 -0.010630338785987015 -0.044060887562798939 0.0 0.040533009722404034 0.16028929906489059 0.0 0.0078967525018744378 0.045755904290086136 0.0 0.0061929039262327568 0.13885208113621852 0.0 -0.039661552063673833 -0.4355008675526405 0.0 0.16194799746707514 0.18286117270885482 0.0 -0.056570995369401883 0.094320338915826779 0.0 </DataArray>
<DataArray Name="radii" format="ascii" type="Float32">1.3508657626710003 1.3508657626710003 1.3508657626710003 1.3508657626710003 1.3508657626710003 1.3508657626710003 1.3508657626710003 1.3508657626710003 1.3508657626710003 1.3508657626710003 1.3508657626710003 1.3508657626710003 1.3508657626710003 1.3508657626710003 1.3508657626710003 1.3508657626710003 </DataArray>
</PointData>
<CellData/>
</Piece>
</UnstructuredGrid>
</VTKFile>
