<?xml version="1.0" ?>
<VTKFile byte_order="LittleEndian" type="UnstructuredGrid" version="0.1">
<UnstructuredGrid>
<Piece NumberOfCells="0" NumberOfPoints="193">
<Points>
<DataArray NumberOfComponents="3" format="ascii" type="Float32">0 0 0 30.591522560003146 12.952742958103864 2 48.669179913375459 8.2456036925684764 2 62.378141262417358 14.629110670809409 2 34.398619938740083 7.4455212742624584 2 45.889127408141306 5.4907833559307839 2 60.036718385024301 18.476401256064616 2 29.361996895182216 1 2 49.28803144080937 3.5017332718722769 2 66.254527158150395 3.8947637423370423 2 36.478061022247708 14.000767156185828 2 45.77252825213322 10.235524454248711 2 60.764124922550607 1 2 32.781926108287244 19.667034429554732 2 48.487429885985335 9.3686130148995748 2 61.060815569878393 9.0389287435274817 2 34.308980671244626 1 2 43.198541268786663 1 2 57.225648274505176 11.257892256497021 2 29.311284523943232 8.3833011908736097 2 44.409479261024302 3.5162852610365674 2 66.735381960689466 8.2658193722471136 2 33.021832962189919 11.316459366948264 2 46.995022663628724 15.49268851384759 2 65.08858978458386 1.7570125748816441 2 31.664375841418121 14.036305480017624 2 50.296759935894542 8.7831694589782305 2 61.369636141847984 10.404796022668229 2 33.746702565640682 5.1771774792151026 2 45.137168376392133 8.7869490227673577 2 59.288305277538576 13.727418640452973 2 31.570286900924355 5.8039961102155138 2 49.131725732879943 6.4044362514435349 2 65.670302156615463 6.6150137990232007 2 37.921521964708568 20.017499618626889 2 43.844748426221869 15.161855965940907 2 60.700052348644654 3.3167878606872336 2 34.606578223270709 14.08423047289544 2 49.438937380464601 13.307833144732163 2 60.213041124930051 4.6503657220907737 2 31.128616195650842 2.5292224524044147 2 43.053026884621069 3.7198965109927915 2 56.622442675471817 12.603541163336891 2 33.130750098621057 6.8765401671429531 2 47.935444013704341 3.0516040515884364 2 62.963330421625209 7.0149147459905832 2 35.789114115210211 11.063654615110325 2 48.894918549545288 19.146470078206033 2 63.519779654615199 5.2356481266897914 2 30.36626055109296 10.215915135551052 2 46.111949963437809 7.3946796985405596 2 61.683749636766962 16.377939343651995 2 33.244583384011776 9.8005013314317146 2 46.351228616888115 3.6662729569266976 2 62.335944527936149 18.119729839746295 2 29.50283604207489 3.7187062749638979 2 50.067790028237553 1 2 66.729506167389161 2.3442850268475377 2 35.118664556441075 17.373064871551293 2 46.84448651397377 11.752382339194243 2 62.98773211354478 2.4442389733502705 2 34.666539252060339 19.36288845867395 2 47.521973600723719 13.642432557704833 2 63.189940848854718 10.717818027533202 2 35.595306114194727 1 2 44.427296784192606 1 2 59.763847137826858 11.714809512579853 2 30.632220290957161 7.4092082337976422 2 46.818404055900537 2.2834419457814232 2 67.710068691872834 9.86310395733455 2 31.60565664837792 11.93209104261078 2 47.283369864747897 18.08127699389436 2 63.158348300179057 1 2 30.989246106941817 16.402542173079276 2 51.384852284665833 7.2148307931490372 2 61.033725531237074 13.092509125357381 2 32.310967300101844 3.9892870998378167 2 44.286174010287652 10.327790907868598 2 58.913853880769551 17.047050786752347 2 29.320294440738273 4.9244373075906474 2 46.985459073556044 5.0322070418542619 2 64.030317583103269 2.7723655103584375 2 38.745148320332881 16.588558514333897 2 45.287971086071529 17.473788219118742 2 59.052783600508512 1 2 33.240686998766947 17.595327374113378 2 48.570333254516271 14.885211769302925 2 61.079234594952048 6.1330309889481116 2 31.854562978736059 1 2 44.224994450043638 5.3278144896831119 2 54.911551241998573 15.582055322544893 2 31.83884371840908 8.7518514300238017 2 48.424959876701841 1.9500074267723635 2 65.296257122818602 7.955867974008437 2 37.519129297244355 11.113255096245485 2 50.563001252785227 18.279174834465895 2 61.625068238605543 4.5867688278328327 2 29.221631220137006 13.395104601277843 2 48.059468946714809 7.1640074989073232 2 63.480667210336343 16.092998063069871 2 34.608043838689213 8.7127857033199891 2 45.231246269170093 6.454583634652427 2 61.414738077082262 19.808890127705414 2 30.125907927816417 2.7159317419294076 2 50.667078585067664 3.3562891071771026 2 65.401031507854469 3.1111157020501845 2 35.746200078295196 15.520766950193114 2 46.894728246388077 9.252276230611411 2 61.963637297426629 1 2 31.508304748068486 18.256382098138911 2 47.312015466828093 10.58483413523631 2 62.021824507843135 7.8040116881525572 2 33.04911699717082 1 2 42.131684089699 1 2 58.220832470731033 10.367775163812611 2 28.986749383607368 9.7171902790180251 2 45.196931972148597 4.3686114800181617 2 67.594127855384883 7.40078747721574 2 34.339346997942592 12.096248566307029 2 45.738029231367705 14.287778472650819 2 65.993978338248724 1 2 33.144554267175188 14.502309992184808 2 49.985958684543739 7.5042022014443761 2 61.427020732533897 11.668880970571381 2 32.594449400553543 5.3812514012273835 2 44.391972517845439 7.4721311892933144 2 57.459682212723017 13.880530366821951 2 30.468944201362302 5.2798615818497989 2 48.617220995752398 5.3147488753099346 2 64.32218693665142 6.3804885250322378 2 38.174568715652022 18.207556957987816 2 45.296578436505854 15.852770747513439 2 59.188578251256466 2.7114407890730754 2 33.018675494807951 12.957155577434619 2 50.029735404455124 11.732262651201713 2 59.586505637235028 5.8392853308996484 2 32.246757223295063 2.5312788498407186 2 43.771801564932773 2.2890797616195413 2 55.504097152829871 13.69455976738214 2 31.856188498314097 7.1668745490836798 2 47.933516706668669 4.2411885300779817 2 62.389921997915785 5.8609138030956069 2 35.436431390148194 12.833438076363182 2 49.187980782966626 21.069076425724152 2 64.144313843629689 4.1086411126306626 2 29.886775315156211 11.561499757700952 2 46.935410711327876 8.1956371292373973 2 59.999544978576353 15.909082271670595 2 33.089769291723726 8.4289384416188913 2 45.409638898380294 2.4623055791822348 2 64.19792627497425 17.720955757339379 2 29.193062025624268 2.0819262576090094 2 49.709551992956825 2.154448449714248 2 67.312193727026184 1 2 36.908447147063711 16.831566024738709 2 46.125376887597334 12.820222157584045 2 61.686829910159489 2.548551715354832 2 36.422381916332988 18.712666543397493 2 48.327651969645487 12.273809852140454 2 62.699556862405096 9.2315372272291683 2 36.301886357120239 2.3024511601348849 2 45.55493528189001 1 2 58.374395896290864 12.318961409021901 2 29.965738779977503 6.5199188856035057 2 46.832029630656976 1 2 66.760176734866704 10.991633796908044 2 31.750548589142099 10.315018931547147 2 48.420169988595738 16.666934442813339 2 64.273992970156073 1 2 32.345994164303598 15.873876151997873 2 52.129063581279553 5.8411544963122362 2 60.77678459769291 14.629820511727949 2 33.609665834001163 3.7554119188046502 2 43.358039745284792 9.5790758471611426 2 58.317666398495675 15.320897486209255 2 31.08991043770498 4.1087905282955282 2 47.217260491031624 6.3416303469409021 2 65.300962269195423 5.0233109493849106 2 37.615109572272679 15.10320386341302 2 45.770003554916585 19.253859419896333 2 60.156973617530596 1.8732450433126704 2 34.090518032579531 15.920133396899701 2 50.098382991211842 14.885650386298321 2 60.757605826730519 7.3973069295455085 2 30.660318757753203 1 2 43.398291735262468 6.4446729098840336 2 53.186720961551067 15.62646193472159 2 30.588502717050844 8.8228618000140617 2 48.310746510931523 1 2 63.852652374097822 8.0438988859374785 2 36.719533991907767 12.225960561669622 2 50.284863061090491 16.520678900446857 2 62.575396880704965 3.9053897133368878 2 </DataArray>
</Points>
<Cells>
<DataArray Name="connectivity" format="ascii" type="Int32">0</DataArray>
<DataArray Name="offsets" format="ascii" type="Int32">0</DataArray>
<DataArray Name="types" format="ascii" type="UInt8">1</DataArray>
</Cells>
<PointData>
<DataArray Name="Points" NumberOfComponents="3" format="ascii" type="Float32">0 0 0 30.591522560003146 12.952742958103864 2 48.669179913375459 8.2456036925684764 2 62.378141262417358 14.629110670809409 2 34.398619938740083 7.4455212742624584 2 45.889127408141306 5.4907833559307839 2 60.036718385024301 18.476401256064616 2 29.361996895182216 1 2 49.28803144080937 3.5017332718722769 2 66.254527158150395 3.8947637423370423 2 36.478061022247708 14.000767156185828 2 45.77252825213322 10.235524454248711 2 60.764124922550607 1 2 32.781926108287244 19.667034429554732 2 48.487429885985335 9.3686130148995748 2 61.060815569878393 9.0389287435274817 2 34.308980671244626 1 2 43.198541268786663 1 2 57.225648274505176 11.257892256497021 2 29.311284523943232 8.3833011908736097 2 44.409479261024302 3.5162852610365674 2 66.735381960689466 8.2658193722471136 2 33.021832962189919 11.316459366948264 2 46.995022663628724 15.49268851384759 2 65.08858978458386 1.7570125748816441 2 31.664375841418121 14.036305480017624 2 50.296759935894542 8.7831694589782305 2 61.369636141847984 10.404796022668229 2 33.746702565640682 5.1771774792151026 2 45.137168376392133 8.7869490227673577 2 59.288305277538576 13.727418640452973 2 31.570286900924355 5.8039961102155138 2 49.131725732879943 6.4044362514435349 2 65.670302156615463 6.6150137990232007 2 37.921521964708568 20.017499618626889 2 43.844748426221869 15.161855965940907 2 60.700052348644654 3.3167878606872336 2 34.606578223270709 14.08423047289544 2 49.438937380464601 13.307833144732163 2 60.213041124930051 4.6503657220907737 2 31.128616195650842 2.5292224524044147 2 43.053026884621069 3.7198965109927915 2 56.622442675471817 12.603541163336891 2 33.130750098621057 6.8765401671429531 2 47.935444013704341 3.0516040515884364 2 62.963330421625209 7.0149147459905832 2 35.789114115210211 11.063654615110325 2 48.894918549545288 19.146470078206033 2 63.519779654615199 5.2356481266897914 2 30.36626055109296 10.215915135551052 2 46.111949963437809 7.3946796985405596 2 61.683749636766962 16.377939343651995 2 33.244583384011776 9.8005013314317146 2 46.351228616888115 3.6662729569266976 2 62.335944527936149 18.119729839746295 2 29.50283604207489 3.7187062749638979 2 50.067790028237553 1 2 66.729506167389161 2.3442850268475377 2 35.118664556441075 17.373064871551293 2 46.84448651397377 11.752382339194243 2 62.98773211354478 2.4442389733502705 2 34.666539252060339 19.36288845867395 2 47.521973600723719 13.642432557704833 2 63.189940848854718 10.717818027533202 2 35.595306114194727 1 2 44.427296784192606 1 2 59.763847137826858 11.714809512579853 2 30.632220290957161 7.4092082337976422 2 46.818404055900537 2.2834419457814232 2 67.710068691872834 9.86310395733455 2 31.60565664837792 11.93209104261078 2 47.283369864747897 18.08127699389436 2 63.158348300179057 1 2 30.989246106941817 16.402542173079276 2 51.384852284665833 7.2148307931490372 2 61.033725531237074 13.092509125357381 2 32.310967300101844 3.9892870998378167 2 44.286174010287652 10.327790907868598 2 58.913853880769551 17.047050786752347 2 29.320294440738273 4.9244373075906474 2 46.985459073556044 5.0322070418542619 2 64.030317583103269 2.7723655103584375 2 38.745148320332881 16.588558514333897 2 45.287971086071529 17.473788219118742 2 59.052783600508512 1 2 33.240686998766947 17.595327374113378 2 48.570333254516271 14.885211769302925 2 61.079234594952048 6.1330309889481116 2 31.854562978736059 1 2 44.224994450043638 5.3278144896831119 2 54.911551241998573 15.582055322544893 2 31.83884371840908 8.7518514300238017 2 48.424959876701841 1.9500074267723635 2 65.296257122818602 7.955867974008437 2 37.519129297244355 11.113255096245485 2 50.563001252785227 18.279174834465895 2 61.625068238605543 4.5867688278328327 2 29.221631220137006 13.395104601277843 2 48.059468946714809 7.1640074989073232 2 63.480667210336343 16.092998063069871 2 34.608043838689213 8.7127857033199891 2 45.231246269170093 6.454583634652427 2 61.414738077082262 19.808890127705414 2 30.125907927816417 2.7159317419294076 2 50.667078585067664 3.3562891071771026 2 65.401031507854469 3.1111157020501845 2 35.746200078295196 15.520766950193114 2 46.894728246388077 9.252276230611411 2 61.963637297426629 1 2 31.508304748068486 18.256382098138911 2 47.312015466828093 10.58483413523631 2 62.021824507843135 7.8040116881525572 2 33.04911699717082 1 2 42.131684089699 1 2 58.220832470731033 10.367775163812611 2 28.986749383607368 9.7171902790180251 2 45.196931972148597 4.3686114800181617 2 67.594127855384883 7.40078747721574 2 34.339346997942592 12.096248566307029 2 45.738029231367705 14.287778472650819 2 65.993978338248724 1 2 33.144554267175188 14.502309992184808 2 49.985958684543739 7.5042022014443761 2 61.427020732533897 11.668880970571381 2 32.594449400553543 5.3812514012273835 2 44.391972517845439 7.4721311892933144 2 57.459682212723017 13.880530366821951 2 30.468944201362302 5.2798615818497989 2 48.617220995752398 5.3147488753099346 2 64.32218693665142 6.3804885250322378 2 38.174568715652022 18.207556957987816 2 45.296578436505854 15.852770747513439 2 59.188578251256466 2.7114407890730754 2 33.018675494807951 12.957155577434619 2 50.029735404455124 11.732262651201713 2 59.586505637235028 5.8392853308996484 2 32.246757223295063 2.5312788498407186 2 43.771801564932773 2.2890797616195413 2 55.504097152829871 13.69455976738214 2 31.856188498314097 7.1668745490836798 2 47.933516706668669 4.2411885300779817 2 62.389921997915785 5.8609138030956069 2 35.436431390148194 12.833438076363182 2 49.187980782966626 21.069076425724152 2 64.144313843629689 4.1086411126306626 2 29.886775315156211 11.561499757700952 2 46.935410711327876 8.1956371292373973 2 59.999544978576353 15.909082271670595 2 33.089769291723726 8.4289384416188913 2 45.409638898380294 2.4623055791822348 2 64.19792627497425 17.720955757339379 2 29.193062025624268 2.0819262576090094 2 49.709551992956825 2.154448449714248 2 67.312193727026184 1 2 36.908447147063711 16.831566024738709 2 46.125376887597334 12.820222157584045 2 61.686829910159489 2.548551715354832 2 36.422381916332988 18.712666543397493 2 48.327651969645487 12.273809852140454 2 62.699556862405096 9.2315372272291683 2 36.301886357120239 2.3024511601348849 2 45.55493528189001 1 2 58.374395896290864 12.318961409021901 2 29.965738779977503 6.5199188856035057 2 46.832029630656976 1 2 66.760176734866704 10.991633796908044 2 31.750548589142099 10.315018931547147 2 48.420169988595738 16.666934442813339 2 64.273992970156073 1 2 32.345994164303598 15.873876151997873 2 52.129063581279553 5.8411544963122362 2 60.77678459769291 14.629820511727949 2 33.609665834001163 3.7554119188046502 2 43.358039745284792 9.5790758471611426 2 58.317666398495675 15.320897486209255 2 31.08991043770498 4.1087905282955282 2 47.217260491031624 6.3416303469409021 2 65.300962269195423 5.0233109493849106 2 37.615109572272679 15.10320386341302 2 45.770003554916585 19.253859419896333 2 60.156973617530596 1.8732450433126704 2 34.090518032579531 15.920133396899701 2 50.098382991211842 14.885650386298321 2 60.757605826730519 7.3973069295455085 2 30.660318757753203 1 2 43.398291735262468 6.4446729098840336 2 53.186720961551067 15.62646193472159 2 30.588502717050844 8.8228618000140617 2 48.310746510931523 1 2 63.852652374097822 8.0438988859374785 2 36.719533991907767 12.225960561669622 2 50.284863061090491 16.520678900446857 2 62.575396880704965 3.9053897133368878 2 </DataArray>
<DataArray Name="forces" NumberOfComponents="3" format="ascii" type="Float32">0 0 0 0.033525198101115788 0.12700245569772367 0.0 0.053166810742742598 0.066645636831517932 0.0 0.014874883319129395 0.12087937819379818 0.0 0.038727454892849997 0.063827689299465501 0.0 0.0094682861714944222 0.039607874140344917 0.0 0.052119188068769542 0.086812791201458239 0.0 -0.046739904986808425 -1.0469120392862308 0.0 -0.0092771381332305836 0.070073431704664735 0.0 -0.0324421579032938 0.074746709055055371 0.0 0.010143414231121542 0.11434364304974595 0.0 -0.013689652786926382 0.13585193463457917 0.0 -0.07896077209839647 -0.93784237200932652 0.0 -0.024381935314065253 0.087185686684613004 0.0 0.0061387146475615564 0.070923447255405253 0.0 -0.015870058696441779 0.03062603615718712 0.0 0.033328067493768321 -0.75556460196733999 0.0 0.0035207846119136021 -0.67039705809349148 0.0 -0.014796889123354917 0.092656291653138823 0.0 0.022209631823255638 0.039616713226214184 0.0 -0.035211702306272075 0.0078218822698886692 0.0 -0.00116897925362619 0.084906739578581858 0.0 -0.0074729010881016689 0.074649059797774364 0.0 0.017718130815082431 0.21604250186635099 0.0 0.027121433409308948 0.079084358382957243 0.0 0.025501498798662342 0.16097707087888094 0.0 0.044766013999631982 0.10065765855113604 0.0 0.081145259872768216 0.021927363370359054 0.0 0.019423170474809702 -0.024834753690779698 0.0 0.019864927833249106 0.10505647336585301 0.0 0.053551261969019395 0.05675998960241381 0.0 0.010598344956749592 0.065519207088989007 0.0 -0.0059797238132531655 0.056974166647861438 0.0 0.011813407245144125 0.11349767750375428 0.0 -0.014511374751732493 0.18125432371056113 0.0 0.049656446739831051 0.071806929274051357 0.0 0.028216931125479301 0.051298098797114049 0.0 0.02386037020305521 0.098418897319575496 0.0 -0.07948483450563032 0.12092132831515856 0.0 0.0023392121750159534 0.039277350228138594 0.0 0.012868683932557773 -0.033359579103809267 0.0 -0.046774494682255752 -0.0082830410638871366 0.0 0.0050972986039119483 0.09570938817748964 0.0 0.023666176886430537 -0.042362030664914285 0.0 -0.068511308622650743 -0.0054381495617500681 0.0 -0.0042618617643956913 -0.0020914637774164246 0.0 0.0056238407792165157 0.064777535397410102 0.0 -0.058774989333227952 0.041210282255648531 0.0 -0.022374141008859011 -0.020231563851974665 0.0 -0.010625745663198086 0.18014054654175338 0.0 -0.048296615645226082 0.081083543145782533 0.0 -0.01487965544015887 0.10145957655175945 0.0 -0.024234057995483615 0.041535662906818455 0.0 -0.035432380890949466 -0.014033179640136839 0.0 -0.013667315661761464 0.082612710077822032 0.0 0.034685149447376329 0.063378736095151295 0.0 -0.0032146542178061732 -1.0921118268071743 0.0 -0.0094550401328882538 0.0439006387861684 0.0 0.0032819976542858703 0.15610486620468991 0.0 -0.031360682121585159 0.085509262662486707 0.0 -0.015441983787668062 -0.011887768775462826 0.0 -0.029550916919523801 0.031182859326990053 0.0 -0.062445852159703108 0.157070614341421 0.0 0.029676974850711052 0.13399897372874464 0.0 0.0072901368856901627 -0.79903089597168142 0.0 0.015264097307452706 -0.68685123689612093 0.0 0.046547010905701125 0.15834220161152088 0.0 0.011173944749998596 0.057698521696288196 0.0 -0.029089601272821147 0.0039780848999076725 0.0 -0.063392662065669569 0.020835625150793735 0.0 -0.02509776086538304 0.060951111545938852 0.0 -0.10512056353519116 0.055450205873969878 0.0 -0.025758435433865245 -0.55708655035129251 0.0 -0.020251434977373306 0.083309227098413541 0.0 0.024907444431877479 0.05270909505763928 0.0 0.11811580912578527 0.13381850863168887 0.0 -0.029894556242490822 0.015268985774785623 0.0 -0.058464088398919811 0.095111262062615665 0.0 -0.02101654320951174 0.13096614541950166 0.0 0.011166427359304232 0.069300968372951632 0.0 -0.00044205525309359839 -0.060847090547461402 0.0 -0.044049226749838327 -0.025981853355040621 0.0 0.026476012945919419 0.15575466662107856 0.0 0.1015491690645319 0.18118435982487635 0.0 0.004093081632140172 -0.95392552093589444 0.0 -0.0021458940932172071 0.1211097576259204 0.0 -0.018066141337156227 0.13493439405612537 0.0 -0.011807532402808352 0.059201181152981341 0.0 0.029358074235127485 -0.68010387408218587 0.0 0.0089206314498569972 0.0079096659304165318 0.0 0.072493507014898456 0.15331996910846604 0.0 0.013442974571502897 0.11895657010022044 0.0 0.035505342228036696 0.056715580926620435 0.0 -0.013498236968916055 0.094105500354712407 0.0 -0.0056672962499765278 0.10608736384795681 0.0 0.079213615144591312 0.21077925604640144 0.0 0.01776366267999574 0.021224458546432012 0.0 -0.03004551309989334 0.17372606253964726 0.0 -0.01893241936098633 0.043577365285982328 0.0 -0.016193847242992415 0.16289727417720845 0.0 0.0047966326983612806 0.12439841715744013 0.0 -0.042352968011620085 0.0086198585007197116 0.0 0.022688263602729179 0.12688893860456768 0.0 0.0059438142656430201 0.026442274810029531 0.0 0.057969209247303893 -0.011628249553274683 0.0 -0.0033822761367781782 0.07037015375142977 0.0 0.021985091724341044 0.13467553742281368 0.0 -0.056836348236232487 0.047248724180493307 0.0 -0.062946019564889474 -0.60546003174099217 0.0 -0.0093150943256163077 0.086841566424504496 0.0 0.037059590613493801 0.040586517212692436 0.0 0.020410946007864611 0.052596581492517544 0.0 0.043179684542838881 -0.70447209516601395 0.0 -0.021030318380889645 -0.57191768581891822 0.0 0.056056198290102159 0.13256479423679202 0.0 0.048898844664898966 0.044183167929416969 0.0 0.015696249270821326 -0.028964656844017944 0.0 0.0016730567999081736 0.069458508298229638 0.0 -0.0091109835349745816 0.079757537036557885 0.0 -0.051161454111508117 0.19015347815430944 0.0 0.0035262963818623039 -0.93566256711927398 0.0 0.048382061269806265 0.11266085915302479 0.0 -0.00039325730927325386 0.098223025404715669 0.0 -0.037622642442239673 0.014732564404968979 0.0 -0.016672492870500967 0.0088125639481517193 0.0 -0.0011369907713307259 0.059722145677929106 0.0 0.052953705094968301 0.045720292780122407 0.0 0.076764787716560257 0.024434418286882753 0.0 -0.0069927065487067341 0.076023649637070312 0.0 -0.021058485707711377 0.050497144753110179 0.0 0.018516809245505916 0.16551694032431025 0.0 -0.0010023459859892225 0.20407564257035254 0.0 -0.015365227478477794 0.04096402217234274 0.0 -0.017926551953656313 0.093194495279200928 0.0 -0.0040667417534772099 0.13428266179760309 0.0 0.0033280469427479087 0.023826093201954779 0.0 0.011393194047690347 0.012474747971014014 0.0 -0.019313853701954931 0.0044902819339443859 0.0 0.0040728128782997058 0.09328097097993307 0.0 0.0021856797476790223 0.085416331866748019 0.0 0.027610441862630113 0.020880802395788954 0.0 -0.024771813997806695 0.025301826819359351 0.0 -0.013495835433863568 0.076315597946874453 0.0 0.0085547359268769579 0.057606820238874215 0.0 0.095041368627072575 0.0033373075577387626 0.0 -0.05391700954272749 0.1720931814292212 0.0 0.071330433574114935 0.01980971828950244 0.0 -0.0022337196934396619 0.12378125746395809 0.0 0.034032060767208744 -0.046434537387441355 0.0 -0.052376948673374647 -0.019483981031313435 0.0 0.061402520780610176 0.1680646627915105 0.0 0.024339590475350947 0.043448094563333137 0.0 0.0021250660201242721 0.067518168471250875 0.0 0.0036656864111936915 -0.7235635209004706 0.0 0.018497377794536987 0.13845230039971068 0.0 -0.0069997408668867611 0.14183014237266361 0.0 0.019039482109324435 0.00027905928593430218 0.0 0.018438710724019119 0.14546441481859584 0.0 -0.06482769260740609 0.10805011520831351 0.0 0.013744839485979626 0.070913559910559781 0.0 -0.027649961093542695 0.032188846655960363 0.0 0.065670329378010095 -0.66151495640581892 0.0 0.026953436899949529 0.058818132202532569 0.0 -0.0059446280883029279 0.038102805406490164 0.0 0.087585928736250596 -0.78840401515185454 0.0 0.031323675732807421 0.13712526810790471 0.0 -0.012588136937877914 0.090480607884829409 0.0 0.09443395529263085 0.17578808857002204 0.0 0.027773472392303267 -0.86110811333435766 0.0 0.031268774162285018 0.13655036353426014 0.0 0.0041958277025351265 0.014556720537866608 0.0 0.00043830459558535928 0.11185711287460098 0.0 -0.022973935318758826 0.016071804638824627 0.0 -0.0089400006101340579 0.0045945853961598948 0.0 0.029149502620328088 0.091521508830610235 0.0 -0.0011529631445584276 0.0033634200338648473 0.0 -0.041995827911204583 0.016270456334334396 0.0 0.0043864345883382616 0.11761042174846684 0.0 0.02943456560779048 0.12290498760249736 0.0 -0.029296683679660727 0.20219524732252939 0.0 0.011225229481172994 0.10377452912710247 0.0 0.033894641144623233 0.12399874476944187 0.0 -0.0004403707353236655 0.12530747908585621 0.0 -0.020985799373379882 0.0459498038858068 0.0 -0.019340216699325674 -0.67760813093545569 0.0 -0.029911659348645939 0.015055031446234081 0.0 0.034129513842514891 0.14861491382018441 0.0 0.020014731594269267 0.087087056537238541 0.0 0.033101818002100769 -1.1838151170705624 0.0 -0.0038893202709664176 0.061487422871516123 0.0 -0.025941986764668856 0.11356129253207478 0.0 0.038085016013019106 0.15607785899786647 0.0 0.037295975719502689 0.012216251464733097 0.0 </DataArray>
<DataArray Name="radii" format="ascii" type="Float32">0 1 1 1 1 1 1 1 1 1 1 1 1 1 1 1 1 1 1 1 1 1 1 1 1 1 1 1 1 1 1 1 1 1 1 1 1 1 1 1 1 1 1 1 1 1 1 1 1 1 1 1 1 1 1 1 1 1 1 1 1 1 1 1 1 1 1 1 1 1 1 1 1 1 1 1 1 1 1 1 1 1 1 1 1 1 1 1 1 1 1 1 1 1 1 1 1 1 1 1 1 1 1 1 1 1 1 1 1 1 1 1 1 1 1 1 1 1 1 1 1 1 1 1 1 1 1 1 1 1 1 1 1 1 1 1 1 1 1 1 1 1 1 1 1 1 1 1 1 1 1 1 1 1 1 1 1 1 1 1 1 1 1 1 1 1 1 1 1 1 1 1 1 1 1 1 1 1 1 1 1 1 1 1 1 1 1 1 1 1 1 1 1 </DataArray>
</PointData>
<CellData/>
</Piece>
</UnstructuredGrid>
</VTKFile>
