<?xml version="1.0" ?>
<VTKFile byte_order="LittleEndian" type="UnstructuredGrid" version="0.1">
<UnstructuredGrid>
<Piece NumberOfCells="0" NumberOfPoints="6">
<Points>
<DataArray NumberOfComponents="3" format="ascii" type="Float32">24.716994902075584 1.375 2 30.215025651620046 1.375 2 45.471881528205046 1.375 2 58.717654362151265 1.375 2 90.575226843506343 1.375 2 98.625 1.375 2 </DataArray>
</Points>
<Cells>
<DataArray Name="connectivity" format="ascii" type="Int32">0</DataArray>
<DataArray Name="offsets" format="ascii" type="Int32">0</DataArray>
<DataArray Name="types" format="ascii" type="UInt8">1</DataArray>
</Cells>
<PointData>
<DataArray Name="Points" NumberOfComponents="3" format="ascii" type="Float32">24.716994902075584 1.375 2 30.215025651620046 1.375 2 45.471881528205046 1.375 2 58.717654362151265 1.375 2 90.575226843506343 1.375 2 98.625 1.375 2 </DataArray>
<DataArray Name="forces" NumberOfComponents="3" format="ascii" type="Float32">-0.0012948885649954889 0.0 0.0 1.3500311979441904e-13 0.0 0.0 -0.0058472620373706263 0.0 0.0 0.0062447996340111445 0.0 0.0 -0.027833974991935406 0.0 0.0 0.091137232070266805 0.0 0.0 </DataArray>
<DataArray Name="radii" format="ascii" type="Float32">1.375 1.375 1.375 1.375 1.375 1.375 </DataArray>
</PointData>
<CellData/>
</Piece>
</UnstructuredGrid>
</VTKFile>
