<?xml version="1.0" ?>
<VTKFile byte_order="LittleEndian" type="UnstructuredGrid" version="0.1">
<UnstructuredGrid>
<Piece NumberOfCells="0" NumberOfPoints="19">
<Points>
<DataArray NumberOfComponents="3" format="ascii" type="Float32">29.16900249615956 9.2085121242617269 2 98.5448721715339 5.8297436090435735 2 28.084657027218238 1.45512782846611 2 60.426423618706167 8.9722118939447579 2 90.303032918892214 1.45512782846611 2 97.377099429505122 13.536153926131712 2 26.346407846758947 9.1560262889879951 2 98.5448721715339 3.5461962221351513 2 30.383828990040474 6.4710331733208672 2 98.5448721715339 8.3490424403228651 2 31.879786989149867 8.8323976685897296 2 96.314879932818201 4.2397621139613246 2 26.827538714419294 4.0615241931567674 2 58.986332461703043 11.398166486456834 2 96.529885367133247 9.7909303926880646 2 27.864539545778868 6.6789437313211142 2 98.5448721715339 1.45512782846611 2 29.187402803646226 3.987528344276134 2 98.5448721715339 11.115479482856001 2 </DataArray>
</Points>
<Cells>
<DataArray Name="connectivity" format="ascii" type="Int32">0</DataArray>
<DataArray Name="offsets" format="ascii" type="Int32">0</DataArray>
<DataArray Name="types" format="ascii" type="UInt8">1</DataArray>
</Cells>
<PointData>
<DataArray Name="Points" NumberOfComponents="3" format="ascii" type="Float32">29.16900249615956 9.2085121242617269 2 98.5448721715339 5.8297436090435735 2 28.084657027218238 1.45512782846611 2 60.426423618706167 8.9722118939447579 2 90.303032918892214 1.45512782846611 2 97.377099429505122 13.536153926131712 2 26.346407846758947 9.1560262889879951 2 98.5448721715339 3.5461962221351513 2 30.383828990040474 6.4710331733208672 2 98.5448721715339 8.3490424403228651 2 31.879786989149867 8.8323976685897296 2 96.314879932818201 4.2397621139613246 2 26.827538714419294 4.0615241931567674 2 58.986332461703043 11.398166486456834 2 96.529885367133247 9.7909303926880646 2 27.864539545778868 6.6789437313211142 2 98.5448721715339 1.45512782846611 2 29.187402803646226 3.987528344276134 2 98.5448721715339 11.115479482856001 2 </DataArray>
<DataArray Name="forces" NumberOfComponents="3" format="ascii" type="Float32">-0.055429549636526486 0.084389945467853333 0.0 0.51178824679807611 0.13355218575324429 0.0 -0.037294685929227925 -0.15577374805506947 0.0 -0.017086720418559451 0.086495781420089943 0.0 0.0072307256560719402 -0.68323712300399664 0.0 -0.07617642086990814 0.21705253402569963 0.0 -0.059421614792315655 0.076894039460544003 0.0 0.60058523774408135 0.07125899993362006 0.0 -0.025190493328061739 0.12830297809341035 0.0 0.66561984966430576 0.18399677279070292 0.0 -0.029006020311753311 0.18695511386330688 0.0 -0.016053821932975089 0.1272270568598749 0.0 -0.033900851852781799 0.056344302457210019 0.0 0.011992911529886404 0.14411226119952691 0.0 -0.025439218665930019 0.1845887773279537 0.0 -0.065569866184948505 0.076105745273964021 0.0 0.98610815976182487 -0.82254174621561704 0.0 -0.021625423387589549 0.074495292987826769 0.0 0.5180610261740104 0.21995810262517973 0.0 </DataArray>
<DataArray Name="radii" format="ascii" type="Float32">1.45512782846611 1.45512782846611 1.45512782846611 1.45512782846611 1.45512782846611 1.45512782846611 1.45512782846611 1.45512782846611 1.45512782846611 1.45512782846611 1.45512782846611 1.45512782846611 1.45512782846611 1.45512782846611 1.45512782846611 1.45512782846611 1.45512782846611 1.45512782846611 1.45512782846611 </DataArray>
</PointData>
<CellData/>
</Piece>
</UnstructuredGrid>
</VTKFile>
