<?xml version="1.0" ?>
<VTKFile byte_order="LittleEndian" type="UnstructuredGrid" version="0.1">
<UnstructuredGrid>
<Piece NumberOfCells="0" NumberOfPoints="384">
<Points>
<DataArray NumberOfComponents="3" format="ascii" type="Float32">37.14292185992484 9.802241649588364 2 51.713817192807817 15.21828645821706 2 67.522134600470764 12.985998537196691 2 75.44588772198702 14.900770885869836 2 91.543446996889031 7.9250289612122424 2 92.911053498383154 1 2 43.431761244290733 8.3470132122717118 2 55.491966906090788 3.268394317831361 2 74.182563315400557 10.325821744477528 2 80.26940561835697 2.7000812733420747 2 86.222725304180159 2.0145016477508846 2 99.0 7.8794265634561969 2 40.736315564242773 7.5650821053296706 2 53.060349460786199 7.9287568603769127 2 67.6484552665748 3.7745308969597429 2 83.04855187379971 10.923024974783015 2 87.08143778542275 1 2 92.637537344756467 11.287350358090631 2 40.95902605710463 2.346858303151155 2 59.386577924140695 7.1715053175831747 2 71.137702215005248 9.9819832551624277 2 75.477030303856992 1 2 87.876246142615145 17.144563155152106 2 97.378398502916738 3.5090234884081428 2 36.038340538330885 3.5867476207821829 2 52.127598947752205 17.165398627690163 2 66.060153072903148 17.958557885278942 2 77.162702926178255 11.549236344476652 2 88.012802064256192 12.19084370651241 2 94.53548964996294 7.9567949385181898 2 42.161306440971501 14.844197766866404 2 54.565572403601891 7.3251740660759515 2 71.612581897395046 3.7036976198283864 2 77.308103582145151 6.8900823015004455 2 80.334663883683461 1 2 99.0 16.536826637218216 2 38.718143964321463 10.965723077918096 2 54.711224671236707 4.6765084225916231 2 66.943784173372109 5.1371896604272216 2 82.085953140110178 9.6042563175900835 2 87.471354077878019 7.5457920981511197 2 93.426803177400245 14.847472806235229 2 39.622162590653552 4.6168730054513398 2 57.519592387876735 1 2 71.985280847513565 17.813248899899655 2 76.4911305920524 1.5470807500341544 2 84.732193426002425 7.7649802356280322 2 94.74899313911645 2.2016480259093734 2 35.661750261249736 5.2002488364952359 2 49.907887248841213 10.073803731332289 2 67.156227898362062 14.75682724431681 2 76.867855026222074 9.8047195491042523 2 89.390320760892706 9.8220182870521633 2 91.499636798780429 1 2 44.498388345860548 13.185110860452806 2 53.573055739969234 1 2 72.905565689002614 4.9273382953538061 2 80.463968778200226 5.3711337293714001 2 85.890161778755626 3.357832493170529 2 96.445079455677117 9.1135290282229704 2 38.751783459055382 9.5559665940195888 2 50.44281297132531 5.9859650740588766 2 71.438594826913373 5.1389886373599731 2 81.669617532451355 16.192128431464315 2 90.079377126428994 3.8195985925799736 2 90.131638641812728 14.874381785629099 2 43.093701916118 4.9395229389620505 2 56.527021858534489 7.404938641417429 2 69.302448766117493 12.875575883233376 2 74.702314110519808 5.4294243901925707 2 84.60529222177162 12.327440273112494 2 99.0 2.8673156020693611 2 36.900310013730369 5.3321497751817919 2 56.702744232900578 19.835533859770816 2 64.475745057192 12.332960012654814 2 80.091925420289897 17.262164539868202 2 89.784552718467211 16.70598888989516 2 93.516329940089406 5.5124660969687165 2 41.370821106861641 11.474230643793872 2 54.095332977905294 10.716708916892669 2 71.333536311063867 1 2 78.425352001181011 10.256276592373322 2 84.00594367357759 3.3811732924379174 2 99.0 13.369916158807126 2 39.990455360911589 17.974670766371478 2 51.785814916503632 1 2 70.716138380398846 7.2083922122743109 2 79.145106592595766 14.163207219493142 2 89.106079056793803 8.3267361189595235 2 97.33502462763316 10.662727598010099 2 39.444286994056398 2.1037955225615455 2 59.017422211274109 3.9232138377236274 2 72.764607424701495 12.991561476800211 2 78.225002641404899 5.6408078150411063 2 83.842094907860115 4.8910691888617626 2 94.978296655205412 4.7261226328722756 2 35.777071462555448 9.5199756367301021 2 52.577366621167499 13.352293372071838 2 66.031107974400584 9.5286102731883133 2 75.076035028584684 17.482117452553243 2 92.468935682763444 6.7408640274507663 2 93.680110706423591 2.8355381330004747 2 42.290258594004662 10.35200529071755 2 56.695280271396456 5.8331799955384271 2 75.230249130410513 9.0218078114343037 2 78.991230463131686 1 2 83.921813808439069 1 2 96.811874385252054 6.0427551561710784 2 39.613723571387354 6.5581299552470487 2 51.297269677582413 10.323342771958991 2 69.346413613539468 2.1500374320043423 2 83.740998424590686 9.0728826986928155 2 89.733180343998669 1 2 91.250989163555076 12.377117328177405 2 40.31402746113379 3.5195323316144944 2 59.696308967993431 10.155936112749412 2 71.966405214296827 8.4967652744440727 2 75.574865378262885 2.7625660587682672 2 83.530663683957386 15.866268673315917 2 99.0 6.1192351147638497 2 36.958927476287265 1 2 54.200116135962809 19.086646230125311 2 65.750438237688144 13.760012669854278 2 77.570774658561291 14.018016132233695 2 88.360853014554067 15.378857184989036 2 92.03110435993996 9.6685390972522267 2 43.526526289045087 18.027980163898295 2 55.096984944166302 9.6778280637435294 2 72.733182369303762 1 2 75.963882509289007 6.2036176313747244 2 83.112835576376057 2.0224165333759956 2 96.65804305689251 14.130577647075306 2 37.869756039558382 12.969561248607251 2 53.741098914492632 3.5568415915843103 2 69.247291876568241 7.5888911030383257 2 79.594412122969999 11.245775242078691 2 85.689319674487265 9.2934469967401014 2 95.324423135082895 17.340148253372991 2 40.350590906099221 5.4491637039508571 2 56.273508965539492 2.3789982782401307 2 70.342476601783261 14.442219736223509 2 78.092276182252277 4.0482609860179233 2 83.326286455541208 7.4445968543065728 2 97.332474613022697 1 2 34.848008993373973 2.4311185679974785 2 52.704437797931121 11.476690236099843 2 68.209533594960007 18.170987218638803 2 75.396874722907285 11.98892125074647 2 90.903836948658238 10.692543976365499 2 92.069080485503207 3.6576374192635268 2 43.222745682500509 13.5159687353362 2 56.217167564073129 1 2 73.868215189243713 7.4342467945773976 2 82.199162128835155 2.9970584622615402 2 87.017176392525869 6.1601027380475308 2 95.844710456680303 10.729274830859866 2 38.002378335405091 6.8573929745367952 2 53.075629648047723 4.7463824036536026 2 68.460619861452187 5.0664950024397495 2 84.160341758105446 14.102985716440974 2 87.350565766721672 2.8277673526537064 2 89.641858383423852 11.66302380614289 2 42.254911092044424 2.5791324390371098 2 58.26606601388535 8.8571135216550143 2 71.063638238903451 12.860661570024432 2 74.333102830148562 2.3438143808995706 2 85.849653731924676 14.031654180407516 2 99.0 1 2 35.605495258682268 6.8668317457869401 2 56.458622376934763 15.240844109976207 2 62.751561018137018 12.167013776670135 2 77.018873655767607 17.458393278055446 2 92.253143929600654 17.227809521510238 2 90.849297757979173 4.8620595860895941 2 41.068660202022919 9.5387220844108409 2 55.392437750319836 11.70666895203758 2 69.138858490069623 3.85805262013473 2 80.464039268940752 7.2169582846551368 2 84.483199496434381 6.1761690167815519 2 99.0 10.326324934896187 2 40.755083943473153 14.372626782640674 2 51.877408996549363 3.8962618161340266 2 69.43140964245643 10.021955656766734 2 81.586206945343804 12.906952030869919 2 89.738834556728406 5.7076294206964198 2 94.893614627001227 13.74677256165003 2 37.632638842061276 2.4653613750302017 2 57.932064232817083 6.2012230776027879 2 72.050585849830597 14.498812968623943 2 76.910694171663607 5.1192118099012891 2 81.649637162796552 6.5327122936770063 2 95.255531205600946 6.0792737086591666 2 37.583030087087948 8.4092203606537215 2 51.060610919218455 13.540317808267494 2 66.072562975189555 12.189615619124348 2 74.44031977791542 13.383624530757205 2 90.430400302243925 7.0685276350973982 2 92.656973100252713 2.2582982306336854 2 42.46366815817435 7.1112344002696259 2 54.477575952641132 2.3901707932629459 2 72.726916542208116 9.9579719581738537 2 79.144974021587728 2.5882581609451858 2 85.400592899016374 1 2 97.348359084808536 8.0627642364178094 2 41.919196589871376 8.5024475688746772 2 53.810326215612385 8.9555014777069815 2 68.091306842088883 2.5576216887783585 2 81.388306816301466 11.241801208976398 2 88.352003354998189 1 2 94.202687782277479 10.860066063066842 2 40.93711055926493 1 2 57.990624055746032 7.53196450874999 2 72.027316746036419 11.402968856450185 2 74.095649763517031 1 2 86.038483900406035 17.509820925861696 2 96.442514634982317 2.2814550718771205 2 34.839753686510811 4.0131825864280302 2 54.08769107075463 17.216947484636332 2 66.137908380964021 16.106628641716078 2 78.408971147992162 12.457084910386953 2 86.40031694690218 12.471993810225056 2 94.013813799962804 6.7631529024093533 2 42.491998872281393 16.56269578942829 2 55.444607993157483 6.1898035534316111 2 71.298934400977231 2.2749913278615725 2 77.657356747075056 8.5561028005299153 2 81.289446467860131 1.9239025008224762 2 97.006371197972911 16.254219783141519 2 39.301623900026563 12.128219766666227 2 53.9881611634124 5.875539783906004 2 66.79174764826621 6.3014976842485275 2 80.675299024828263 8.506753119798697 2 87.534579394520165 9.0652311583223408 2 91.737065325381863 13.893474020652176 2 38.39136461391972 5.5518334890828296 2 57.922287792313632 2.0827986568048278 2 70.057929054602454 17.615230560512163 2 77.572468475152135 1 2 86.122089009052615 7.8200838865260165 2 94.203127558261713 1 2 34.513066205472057 5.9274472830016611 2 48.662140580924813 10.889032701728363 2 68.73640120063655 14.484135578254726 2 76.266604907080918 8.0581416741179037 2 88.327922549801627 10.576787580776402 2 90.907061024735981 1.8529970980916171 2 45.012724426861325 11.657509608197469 2 52.991617153089827 1.8496656097449498 2 73.533794138697701 6.0372969847968632 2 80.880162672267232 3.7929015375977806 2 86.611391344097854 4.685196507142849 2 97.760070609405517 6.8187508474358856 2 39.97964725381803 8.7618139415840925 2 49.82210039892194 4.6659864904913437 2 70.217979209408114 4.6062850165893998 2 82.447652602053992 14.409223229337529 2 88.438849297633979 2.4930936967483501 2 91.734424853380673 15.612248678709376 2 41.428500949222865 6.3668072329614382 2 55.405001256875615 8.2734597504940144 2 68.407725456116921 11.444326227215225 2 73.091637493479681 3.4119485420071252 2 85.621836522337389 11.069977803585498 2 97.928129687303397 4.967776570803605 2 37.156540971735929 3.9809724488201024 2 58.014965906751094 18.534226297982212 2 64.949356861811268 10.81390369542445 2 78.784147737261748 15.933683395019198 2 90.01844562007706 18.61234681313795 2 92.555945344347833 4.6730476391610019 2 40.428457030134865 12.842661057179612 2 52.679563486851663 9.8227605340343462 2 70.024094045733747 1 2 79.152422572331389 8.7819935973073111 2 85.185165055931066 4.5531225178128238 2 98.629060195672039 11.862165835794894 2 40.73546446365269 16.267684298898345 2 51.21473875860957 2.1170164713256194 2 70.330300816611029 8.6761969641229069 2 80.715809392500901 14.595419533286806 2 88.801130269398612 7.0003073088688872 2 96.805199028877041 12.362081028597313 2 39.627912521739226 1 2 57.17609708279835 4.2997270937703176 2 73.745891234010529 11.693035244401285 2 79.457433492844544 6.0940982550506444 2 82.72297723666685 4.1850197384668109 2 95.585638529800207 3.3489873948332969 2 34.472253160380582 10.425134849603319 2 53.945385744072823 14.111841437599194 2 64.380966783038971 9.4186238559315285 2 73.390709448804415 16.628489369998267 2 92.996493670086181 8.2110266778331127 2 93.932204151761411 3.9549208870988841 2 43.257185689186969 11.703216365890722 2 55.995307296381341 4.4804397890606031 2 73.717648248247258 8.7241430542393896 2 77.891290885324494 2.4222187693257848 2 84.68385943243662 2.3879528718837841 2 96.40619818579205 4.6746483675711721 2 38.962447376826404 7.8562615930219284 2 51.750934125628056 8.6115929805394344 2 68.536486606528157 1 2 84.401705717938739 10.408596382395762 2 89.54089297729179 2.4836252810962809 2 93.245967336270411 12.904975176510655 2 38.840772970050281 3.0043736167845658 2 59.624560626198907 8.6351461065946538 2 71.743202776682651 6.2805243922450344 2 76.846675341135111 3.3308465908094322 2 84.121400887960249 17.624989738293813 2 99.0 4.3469688652043041 2 38.234009532076485 1 2 55.833661382089112 18.053216721036833 2 64.518343154783395 14.785517350647819 2 76.288205813861737 13.230501822250316 2 87.619945447903362 13.869572325375286 2 93.512467091200975 9.5748763259745608 2 41.717820457322944 18.541191356947579 2 56.249889645129876 10.335738819831773 2 72.732125348440817 2.2501393633859204 2 75.051320075092164 7.2298778647433073 2 82.161944596564993 1 2 98.289882373264433 14.865544006363873 2 38.975993309857287 13.835100838371332 2 52.501575202337825 2.8699337425846334 2 68.457654293248893 6.3053440156355363 2 80.337787820237992 9.9263374668409323 2 86.917186992808311 10.633628256277582 2 95.254886320434593 15.472605208411691 2 41.942897132498146 5.2429171740898033 2 57.493272420269065 3.2339684093021588 2 71.132493696978543 16.078021390162387 2 79.388140322095296 4.2890222252105481 2 82.146545882178515 8.0672239737130482 2 95.768229205440633 1 2 33.515899079680409 2.4395846162634522 2 51.383196657900918 12.003278799360139 2 68.405887458238269 16.273623531802315 2 75.663447006362617 10.609586161453985 2 90.590954250518919 8.9279540410692277 2 91.13616322679772 3.0070273844011255 2 41.95294277395115 12.934775599155829 2 54.957376539384192 1 2 72.493991344193503 7.2973493838301522 2 81.78244545595841 4.9402413834452306 2 88.209982669871025 5.6965468724035953 2 95.033944969264496 9.2296666857972234 2 36.194340581941205 8.1722057381983557 2 52.944718511496603 6.7216816770797756 2 69.90633456471879 5.9767856426353614 2 83.057644463924987 12.59054774842045 2 87.712625258273079 4.1866139573710477 2 89.463226909622961 13.341640899294669 2 41.46124508725886 4.0377086171692467 2 56.851383547671993 9.0136164082661647 2 70.221325385500947 11.402590188431587 2 74.295027745633973 3.9875056092190513 2 85.413701440124882 15.734902335016377 2 98.031408382125193 2.1323757258315057 2 36.835749502431618 6.7074542583309613 2 57.12390947282438 16.810358089782948 2 63.391040730914128 13.508692888936459 2 76.976650864786436 15.640507823666836 2 93.437495244323259 18.651426593540922 2 91.584405753209595 5.9308185662266109 2 40.1737727420455 10.617157813681075 2 54.057982308654779 12.451827167983273 2 70.239031949902696 2.9594219529566104 2 78.810493877177109 7.364809642281954 2 85.734829300861847 6.1967586275766307 2 98.258470838958019 9.2354673920634198 2 39.391113877144313 15.215139947085826 2 51.284761667446354 4.9454027600733026 2 68.474114308058915 8.7463461219657237 2 80.126225132944299 12.74191187591731 2 88.965532119269113 4.2475947853762062 2 94.981036903427949 12.190588910968176 2 38.345609487341711 4.1554541391185769 2 58.356044253928637 4.9852361101541423 2 73.680054774343077 14.923418328964829 2 75.749384070367071 4.3715022619518136 2 82.934397061602183 6.0595343213975257 2 95.907724085730578 7.4380053721246666 2 </DataArray>
</Points>
<Cells>
<DataArray Name="connectivity" format="ascii" type="Int32">0</DataArray>
<DataArray Name="offsets" format="ascii" type="Int32">0</DataArray>
<DataArray Name="types" format="ascii" type="UInt8">1</DataArray>
</Cells>
<PointData>
<DataArray Name="Points" NumberOfComponents="3" format="ascii" type="Float32">37.14292185992484 9.802241649588364 2 51.713817192807817 15.21828645821706 2 67.522134600470764 12.985998537196691 2 75.44588772198702 14.900770885869836 2 91.543446996889031 7.9250289612122424 2 92.911053498383154 1 2 43.431761244290733 8.3470132122717118 2 55.491966906090788 3.268394317831361 2 74.182563315400557 10.325821744477528 2 80.26940561835697 2.7000812733420747 2 86.222725304180159 2.0145016477508846 2 99.0 7.8794265634561969 2 40.736315564242773 7.5650821053296706 2 53.060349460786199 7.9287568603769127 2 67.6484552665748 3.7745308969597429 2 83.04855187379971 10.923024974783015 2 87.08143778542275 1 2 92.637537344756467 11.287350358090631 2 40.95902605710463 2.346858303151155 2 59.386577924140695 7.1715053175831747 2 71.137702215005248 9.9819832551624277 2 75.477030303856992 1 2 87.876246142615145 17.144563155152106 2 97.378398502916738 3.5090234884081428 2 36.038340538330885 3.5867476207821829 2 52.127598947752205 17.165398627690163 2 66.060153072903148 17.958557885278942 2 77.162702926178255 11.549236344476652 2 88.012802064256192 12.19084370651241 2 94.53548964996294 7.9567949385181898 2 42.161306440971501 14.844197766866404 2 54.565572403601891 7.3251740660759515 2 71.612581897395046 3.7036976198283864 2 77.308103582145151 6.8900823015004455 2 80.334663883683461 1 2 99.0 16.536826637218216 2 38.718143964321463 10.965723077918096 2 54.711224671236707 4.6765084225916231 2 66.943784173372109 5.1371896604272216 2 82.085953140110178 9.6042563175900835 2 87.471354077878019 7.5457920981511197 2 93.426803177400245 14.847472806235229 2 39.622162590653552 4.6168730054513398 2 57.519592387876735 1 2 71.985280847513565 17.813248899899655 2 76.4911305920524 1.5470807500341544 2 84.732193426002425 7.7649802356280322 2 94.74899313911645 2.2016480259093734 2 35.661750261249736 5.2002488364952359 2 49.907887248841213 10.073803731332289 2 67.156227898362062 14.75682724431681 2 76.867855026222074 9.8047195491042523 2 89.390320760892706 9.8220182870521633 2 91.499636798780429 1 2 44.498388345860548 13.185110860452806 2 53.573055739969234 1 2 72.905565689002614 4.9273382953538061 2 80.463968778200226 5.3711337293714001 2 85.890161778755626 3.357832493170529 2 96.445079455677117 9.1135290282229704 2 38.751783459055382 9.5559665940195888 2 50.44281297132531 5.9859650740588766 2 71.438594826913373 5.1389886373599731 2 81.669617532451355 16.192128431464315 2 90.079377126428994 3.8195985925799736 2 90.131638641812728 14.874381785629099 2 43.093701916118 4.9395229389620505 2 56.527021858534489 7.404938641417429 2 69.302448766117493 12.875575883233376 2 74.702314110519808 5.4294243901925707 2 84.60529222177162 12.327440273112494 2 99.0 2.8673156020693611 2 36.900310013730369 5.3321497751817919 2 56.702744232900578 19.835533859770816 2 64.475745057192 12.332960012654814 2 80.091925420289897 17.262164539868202 2 89.784552718467211 16.70598888989516 2 93.516329940089406 5.5124660969687165 2 41.370821106861641 11.474230643793872 2 54.095332977905294 10.716708916892669 2 71.333536311063867 1 2 78.425352001181011 10.256276592373322 2 84.00594367357759 3.3811732924379174 2 99.0 13.369916158807126 2 39.990455360911589 17.974670766371478 2 51.785814916503632 1 2 70.716138380398846 7.2083922122743109 2 79.145106592595766 14.163207219493142 2 89.106079056793803 8.3267361189595235 2 97.33502462763316 10.662727598010099 2 39.444286994056398 2.1037955225615455 2 59.017422211274109 3.9232138377236274 2 72.764607424701495 12.991561476800211 2 78.225002641404899 5.6408078150411063 2 83.842094907860115 4.8910691888617626 2 94.978296655205412 4.7261226328722756 2 35.777071462555448 9.5199756367301021 2 52.577366621167499 13.352293372071838 2 66.031107974400584 9.5286102731883133 2 75.076035028584684 17.482117452553243 2 92.468935682763444 6.7408640274507663 2 93.680110706423591 2.8355381330004747 2 42.290258594004662 10.35200529071755 2 56.695280271396456 5.8331799955384271 2 75.230249130410513 9.0218078114343037 2 78.991230463131686 1 2 83.921813808439069 1 2 96.811874385252054 6.0427551561710784 2 39.613723571387354 6.5581299552470487 2 51.297269677582413 10.323342771958991 2 69.346413613539468 2.1500374320043423 2 83.740998424590686 9.0728826986928155 2 89.733180343998669 1 2 91.250989163555076 12.377117328177405 2 40.31402746113379 3.5195323316144944 2 59.696308967993431 10.155936112749412 2 71.966405214296827 8.4967652744440727 2 75.574865378262885 2.7625660587682672 2 83.530663683957386 15.866268673315917 2 99.0 6.1192351147638497 2 36.958927476287265 1 2 54.200116135962809 19.086646230125311 2 65.750438237688144 13.760012669854278 2 77.570774658561291 14.018016132233695 2 88.360853014554067 15.378857184989036 2 92.03110435993996 9.6685390972522267 2 43.526526289045087 18.027980163898295 2 55.096984944166302 9.6778280637435294 2 72.733182369303762 1 2 75.963882509289007 6.2036176313747244 2 83.112835576376057 2.0224165333759956 2 96.65804305689251 14.130577647075306 2 37.869756039558382 12.969561248607251 2 53.741098914492632 3.5568415915843103 2 69.247291876568241 7.5888911030383257 2 79.594412122969999 11.245775242078691 2 85.689319674487265 9.2934469967401014 2 95.324423135082895 17.340148253372991 2 40.350590906099221 5.4491637039508571 2 56.273508965539492 2.3789982782401307 2 70.342476601783261 14.442219736223509 2 78.092276182252277 4.0482609860179233 2 83.326286455541208 7.4445968543065728 2 97.332474613022697 1 2 34.848008993373973 2.4311185679974785 2 52.704437797931121 11.476690236099843 2 68.209533594960007 18.170987218638803 2 75.396874722907285 11.98892125074647 2 90.903836948658238 10.692543976365499 2 92.069080485503207 3.6576374192635268 2 43.222745682500509 13.5159687353362 2 56.217167564073129 1 2 73.868215189243713 7.4342467945773976 2 82.199162128835155 2.9970584622615402 2 87.017176392525869 6.1601027380475308 2 95.844710456680303 10.729274830859866 2 38.002378335405091 6.8573929745367952 2 53.075629648047723 4.7463824036536026 2 68.460619861452187 5.0664950024397495 2 84.160341758105446 14.102985716440974 2 87.350565766721672 2.8277673526537064 2 89.641858383423852 11.66302380614289 2 42.254911092044424 2.5791324390371098 2 58.26606601388535 8.8571135216550143 2 71.063638238903451 12.860661570024432 2 74.333102830148562 2.3438143808995706 2 85.849653731924676 14.031654180407516 2 99.0 1 2 35.605495258682268 6.8668317457869401 2 56.458622376934763 15.240844109976207 2 62.751561018137018 12.167013776670135 2 77.018873655767607 17.458393278055446 2 92.253143929600654 17.227809521510238 2 90.849297757979173 4.8620595860895941 2 41.068660202022919 9.5387220844108409 2 55.392437750319836 11.70666895203758 2 69.138858490069623 3.85805262013473 2 80.464039268940752 7.2169582846551368 2 84.483199496434381 6.1761690167815519 2 99.0 10.326324934896187 2 40.755083943473153 14.372626782640674 2 51.877408996549363 3.8962618161340266 2 69.43140964245643 10.021955656766734 2 81.586206945343804 12.906952030869919 2 89.738834556728406 5.7076294206964198 2 94.893614627001227 13.74677256165003 2 37.632638842061276 2.4653613750302017 2 57.932064232817083 6.2012230776027879 2 72.050585849830597 14.498812968623943 2 76.910694171663607 5.1192118099012891 2 81.649637162796552 6.5327122936770063 2 95.255531205600946 6.0792737086591666 2 37.583030087087948 8.4092203606537215 2 51.060610919218455 13.540317808267494 2 66.072562975189555 12.189615619124348 2 74.44031977791542 13.383624530757205 2 90.430400302243925 7.0685276350973982 2 92.656973100252713 2.2582982306336854 2 42.46366815817435 7.1112344002696259 2 54.477575952641132 2.3901707932629459 2 72.726916542208116 9.9579719581738537 2 79.144974021587728 2.5882581609451858 2 85.400592899016374 1 2 97.348359084808536 8.0627642364178094 2 41.919196589871376 8.5024475688746772 2 53.810326215612385 8.9555014777069815 2 68.091306842088883 2.5576216887783585 2 81.388306816301466 11.241801208976398 2 88.352003354998189 1 2 94.202687782277479 10.860066063066842 2 40.93711055926493 1 2 57.990624055746032 7.53196450874999 2 72.027316746036419 11.402968856450185 2 74.095649763517031 1 2 86.038483900406035 17.509820925861696 2 96.442514634982317 2.2814550718771205 2 34.839753686510811 4.0131825864280302 2 54.08769107075463 17.216947484636332 2 66.137908380964021 16.106628641716078 2 78.408971147992162 12.457084910386953 2 86.40031694690218 12.471993810225056 2 94.013813799962804 6.7631529024093533 2 42.491998872281393 16.56269578942829 2 55.444607993157483 6.1898035534316111 2 71.298934400977231 2.2749913278615725 2 77.657356747075056 8.5561028005299153 2 81.289446467860131 1.9239025008224762 2 97.006371197972911 16.254219783141519 2 39.301623900026563 12.128219766666227 2 53.9881611634124 5.875539783906004 2 66.79174764826621 6.3014976842485275 2 80.675299024828263 8.506753119798697 2 87.534579394520165 9.0652311583223408 2 91.737065325381863 13.893474020652176 2 38.39136461391972 5.5518334890828296 2 57.922287792313632 2.0827986568048278 2 70.057929054602454 17.615230560512163 2 77.572468475152135 1 2 86.122089009052615 7.8200838865260165 2 94.203127558261713 1 2 34.513066205472057 5.9274472830016611 2 48.662140580924813 10.889032701728363 2 68.73640120063655 14.484135578254726 2 76.266604907080918 8.0581416741179037 2 88.327922549801627 10.576787580776402 2 90.907061024735981 1.8529970980916171 2 45.012724426861325 11.657509608197469 2 52.991617153089827 1.8496656097449498 2 73.533794138697701 6.0372969847968632 2 80.880162672267232 3.7929015375977806 2 86.611391344097854 4.685196507142849 2 97.760070609405517 6.8187508474358856 2 39.97964725381803 8.7618139415840925 2 49.82210039892194 4.6659864904913437 2 70.217979209408114 4.6062850165893998 2 82.447652602053992 14.409223229337529 2 88.438849297633979 2.4930936967483501 2 91.734424853380673 15.612248678709376 2 41.428500949222865 6.3668072329614382 2 55.405001256875615 8.2734597504940144 2 68.407725456116921 11.444326227215225 2 73.091637493479681 3.4119485420071252 2 85.621836522337389 11.069977803585498 2 97.928129687303397 4.967776570803605 2 37.156540971735929 3.9809724488201024 2 58.014965906751094 18.534226297982212 2 64.949356861811268 10.81390369542445 2 78.784147737261748 15.933683395019198 2 90.01844562007706 18.61234681313795 2 92.555945344347833 4.6730476391610019 2 40.428457030134865 12.842661057179612 2 52.679563486851663 9.8227605340343462 2 70.024094045733747 1 2 79.152422572331389 8.7819935973073111 2 85.185165055931066 4.5531225178128238 2 98.629060195672039 11.862165835794894 2 40.73546446365269 16.267684298898345 2 51.21473875860957 2.1170164713256194 2 70.330300816611029 8.6761969641229069 2 80.715809392500901 14.595419533286806 2 88.801130269398612 7.0003073088688872 2 96.805199028877041 12.362081028597313 2 39.627912521739226 1 2 57.17609708279835 4.2997270937703176 2 73.745891234010529 11.693035244401285 2 79.457433492844544 6.0940982550506444 2 82.72297723666685 4.1850197384668109 2 95.585638529800207 3.3489873948332969 2 34.472253160380582 10.425134849603319 2 53.945385744072823 14.111841437599194 2 64.380966783038971 9.4186238559315285 2 73.390709448804415 16.628489369998267 2 92.996493670086181 8.2110266778331127 2 93.932204151761411 3.9549208870988841 2 43.257185689186969 11.703216365890722 2 55.995307296381341 4.4804397890606031 2 73.717648248247258 8.7241430542393896 2 77.891290885324494 2.4222187693257848 2 84.68385943243662 2.3879528718837841 2 96.40619818579205 4.6746483675711721 2 38.962447376826404 7.8562615930219284 2 51.750934125628056 8.6115929805394344 2 68.536486606528157 1 2 84.401705717938739 10.408596382395762 2 89.54089297729179 2.4836252810962809 2 93.245967336270411 12.904975176510655 2 38.840772970050281 3.0043736167845658 2 59.624560626198907 8.6351461065946538 2 71.743202776682651 6.2805243922450344 2 76.846675341135111 3.3308465908094322 2 84.121400887960249 17.624989738293813 2 99.0 4.3469688652043041 2 38.234009532076485 1 2 55.833661382089112 18.053216721036833 2 64.518343154783395 14.785517350647819 2 76.288205813861737 13.230501822250316 2 87.619945447903362 13.869572325375286 2 93.512467091200975 9.5748763259745608 2 41.717820457322944 18.541191356947579 2 56.249889645129876 10.335738819831773 2 72.732125348440817 2.2501393633859204 2 75.051320075092164 7.2298778647433073 2 82.161944596564993 1 2 98.289882373264433 14.865544006363873 2 38.975993309857287 13.835100838371332 2 52.501575202337825 2.8699337425846334 2 68.457654293248893 6.3053440156355363 2 80.337787820237992 9.9263374668409323 2 86.917186992808311 10.633628256277582 2 95.254886320434593 15.472605208411691 2 41.942897132498146 5.2429171740898033 2 57.493272420269065 3.2339684093021588 2 71.132493696978543 16.078021390162387 2 79.388140322095296 4.2890222252105481 2 82.146545882178515 8.0672239737130482 2 95.768229205440633 1 2 33.515899079680409 2.4395846162634522 2 51.383196657900918 12.003278799360139 2 68.405887458238269 16.273623531802315 2 75.663447006362617 10.609586161453985 2 90.590954250518919 8.9279540410692277 2 91.13616322679772 3.0070273844011255 2 41.95294277395115 12.934775599155829 2 54.957376539384192 1 2 72.493991344193503 7.2973493838301522 2 81.78244545595841 4.9402413834452306 2 88.209982669871025 5.6965468724035953 2 95.033944969264496 9.2296666857972234 2 36.194340581941205 8.1722057381983557 2 52.944718511496603 6.7216816770797756 2 69.90633456471879 5.9767856426353614 2 83.057644463924987 12.59054774842045 2 87.712625258273079 4.1866139573710477 2 89.463226909622961 13.341640899294669 2 41.46124508725886 4.0377086171692467 2 56.851383547671993 9.0136164082661647 2 70.221325385500947 11.402590188431587 2 74.295027745633973 3.9875056092190513 2 85.413701440124882 15.734902335016377 2 98.031408382125193 2.1323757258315057 2 36.835749502431618 6.7074542583309613 2 57.12390947282438 16.810358089782948 2 63.391040730914128 13.508692888936459 2 76.976650864786436 15.640507823666836 2 93.437495244323259 18.651426593540922 2 91.584405753209595 5.9308185662266109 2 40.1737727420455 10.617157813681075 2 54.057982308654779 12.451827167983273 2 70.239031949902696 2.9594219529566104 2 78.810493877177109 7.364809642281954 2 85.734829300861847 6.1967586275766307 2 98.258470838958019 9.2354673920634198 2 39.391113877144313 15.215139947085826 2 51.284761667446354 4.9454027600733026 2 68.474114308058915 8.7463461219657237 2 80.126225132944299 12.74191187591731 2 88.965532119269113 4.2475947853762062 2 94.981036903427949 12.190588910968176 2 38.345609487341711 4.1554541391185769 2 58.356044253928637 4.9852361101541423 2 73.680054774343077 14.923418328964829 2 75.749384070367071 4.3715022619518136 2 82.934397061602183 6.0595343213975257 2 95.907724085730578 7.4380053721246666 2 </DataArray>