<?xml version="1.0" ?>
<VTKFile byte_order="LittleEndian" type="UnstructuredGrid" version="0.1">
<UnstructuredGrid>
<Piece NumberOfCells="0" NumberOfPoints="32">
<Points>
<DataArray NumberOfComponents="3" format="ascii" type="Float32">1.301552918958347 8.0385399374078457 2 7.6342586743976701 3.0063523504869103 2 17.365259331359589 1.301552918958347 2 39.129002082280742 1.301552918958347 2 50.101071891286793 7.8134040876630451 2 62.055630810619157 1.301552918958347 2 67.53429934138795 11.595357750243712 2 84.119381458995676 1.301552918958347 2 1.301552918958347 1.301552918958347 2 10.85945296321977 4.5693608786832192 2 19.242640942442875 11.426530368662849 2 38.667872594180686 3.9281255776633097 2 47.964108280593138 7.7347316336363336 2 65.056266469415206 1.301552918958347 2 67.024039275199172 9.6812256838968231 2 83.801474478770913 5.7945762604430451 2 1.301552918958347 9.9341275497892045 2 7.9650826962536421 1.301552918958347 2 18.534474198230797 1.301552918958347 2 40.163934770338543 1.301552918958347 2 50.901093884560439 9.0985682954904661 2 63.032809005195105 1.301552918958347 2 67.063530502597388 13.128415502492205 2 85.150302343586404 1.301552918958347 2 2.8371357264539498 1.301552918958347 2 9.9106697627613336 3.0952013620511143 2 17.643650063101912 13.007063496637191 2 39.618275192123221 2.7571780702331075 2 48.939228367698291 8.4931271818982168 2 64.103417313297854 1.301552918958347 2 65.987551090870156 7.7916217916886277 2 84.82047369939535 6.5099017761663962 2 </DataArray>
</Points>
<Cells>
<DataArray Name="connectivity" format="ascii" type="Int32">0</DataArray>
<DataArray Name="offsets" format="ascii" type="Int32">0</DataArray>
<DataArray Name="types" format="ascii" type="UInt8">1</DataArray>
</Cells>
<PointData>
<DataArray Name="Points" NumberOfComponents="3" format="ascii" type="Float32">1.301552918958347 8.0385399374078457 2 7.6342586743976701 3.0063523504869103 2 17.365259331359589 1.301552918958347 2 39.129002082280742 1.301552918958347 2 50.101071891286793 7.8134040876630451 2 62.055630810619157 1.301552918958347 2 67.53429934138795 11.595357750243712 2 84.119381458995676 1.301552918958347 2 1.301552918958347 1.301552918958347 2 10.85945296321977 4.5693608786832192 2 19.242640942442875 11.426530368662849 2 38.667872594180686 3.9281255776633097 2 47.964108280593138 7.7347316336363336 2 65.056266469415206 1.301552918958347 2 67.024039275199172 9.6812256838968231 2 83.801474478770913 5.7945762604430451 2 1.301552918958347 9.9341275497892045 2 7.9650826962536421 1.301552918958347 2 18.534474198230797 1.301552918958347 2 40.163934770338543 1.301552918958347 2 50.901093884560439 9.0985682954904661 2 63.032809005195105 1.301552918958347 2 67.063530502597388 13.128415502492205 2 85.150302343586404 1.301552918958347 2 2.8371357264539498 1.301552918958347 2 9.9106697627613336 3.0952013620511143 2 17.643650063101912 13.007063496637191 2 39.618275192123221 2.7571780702331075 2 48.939228367698291 8.4931271818982168 2 64.103417313297854 1.301552918958347 2 65.987551090870156 7.7916217916886277 2 84.82047369939535 6.5099017761663962 2 </DataArray>
<DataArray Name="forces" NumberOfComponents="3" format="ascii" type="Float32">-0.83971719327221894 0.2623759031382279 0.0 -0.15814687442285819 0.073785309989138209 0.0 0.037874318088948311 -1.5580982263323466 0.0 -0.011213982423980196 -1.6784503893814624 0.0 0.018138826891641258 0.30826450654694382 0.0 0.013519150835866411 -1.7011605018907456 0.0 -0.0062992865440156809 0.37618211510331778 0.0 0.032525390425871326 -2.1356016170708871 0.0 -1.123744139874036 -1.4535677292047477 0.0 -0.04607491556197163 0.22873648088300536 0.0 -0.083635893039823384 0.32454855469610255 0.0 -0.010540687532536841 0.14294585509939006 0.0 0.0047412860494645929 0.24202270193164194 0.0 -5.232575018609964e-05 -1.6279167231004525 0.0 -0.028888189866800307 0.26309590478928113 0.0 -0.046853310082517842 0.18082237353671671 0.0 -0.97193621649443429 0.27383730504300785 0.0 -0.02591439125661199 -0.93854733310184946 0.0 0.019967789166716349 -1.420954080049083 0.0 0.0071119097978502906 -1.6619362590800617 0.0 0.029690449662851615 0.23469073419290515 0.0 0.0094526086412422342 -1.653852284360471 0.0 -0.074231277936035678 0.3758224373688317 0.0 0.055091713805546449 -2.270053580186723 0.0 0.0041888398503408253 -1.1875846980218272 0.0 -0.042818419242681816 0.084046264347840238 0.0 -0.0069904011957949378 0.46491611982511816 0.0 -0.016920446243446421 0.052051532626093161 0.0 -0.025752773170501952 0.23084065103202073 0.0 0.0073420363250884524 -1.7079523865022632 0.0 -0.061084943729702967 0.17940291653829477 0.0 -0.004840077209642607 0.17958059445798283 0.0 </DataArray>
<DataArray Name="radii" format="ascii" type="Float32">1.301552918958347 1.301552918958347 1.301552918958347 1.301552918958347 1.301552918958347 1.301552918958347 1.301552918958347 1.301552918958347 1.301552918958347 1.301552918958347 1.301552918958347 1.301552918958347 1.301552918958347 1.301552918958347 1.301552918958347 1.301552918958347 1.301552918958347 1.301552918958347 1.301552918958347 1.301552918958347 1.301552918958347 1.301552918958347 1.301552918958347 1.301552918958347 1.301552918958347 1.301552918958347 1.301552918958347 1.301552918958347 1.301552918958347 1.301552918958347 1.301552918958347 1.301552918958347 </DataArray>
</PointData>
<CellData/>
</Piece>
</UnstructuredGrid>
</VTKFile>
