<?xml version="1.0" ?>
<VTKFile byte_order="LittleEndian" type="UnstructuredGrid" version="0.1">
<UnstructuredGrid>
<Piece NumberOfCells="0" NumberOfPoints="18">
<Points>
<DataArray NumberOfComponents="3" format="ascii" type="Float32">0 0 0 5.9000000000000004 1.375 2 15.707522366003953 1.375 2 27.466242715333774 1.375 2 32.963808587905916 1.375 2 35.713056401164351 1.375 2 42.207477633996049 1.375 2 48.220203879950191 1.375 2 53.234849690400793 1.375 2 55.970498928788011 1.375 2 61.461223512382105 1.375 2 71.516501734521285 1.375 2 74.263932736175391 1.375 2 77.012733945166801 1.375 2 79.760164903873715 1.375 2 87.852689565427141 1.375 2 93.273613809198295 1.375 2 95.954075756226132 1.375 2 </DataArray>
</Points>
<Cells>
<DataArray Name="connectivity" format="ascii" type="Int32">0</DataArray>
<DataArray Name="offsets" format="ascii" type="Int32">0</DataArray>
<DataArray Name="types" format="ascii" type="UInt8">1</DataArray>
</Cells>
<PointData>
<DataArray Name="Points" NumberOfComponents="3" format="ascii" type="Float32">0 0 0 5.9000000000000004 1.375 2 15.707522366003953 1.375 2 27.466242715333774 1.375 2 32.963808587905916 1.375 2 35.713056401164351 1.375 2 42.207477633996049 1.375 2 48.220203879950191 1.375 2 53.234849690400793 1.375 2 55.970498928788011 1.375 2 61.461223512382105 1.375 2 71.516501734521285 1.375 2 74.263932736175391 1.375 2 77.012733945166801 1.375 2 79.760164903873715 1.375 2 87.852689565427141 1.375 2 93.273613809198295 1.375 2 95.954075756226132 1.375 2 </DataArray>
<DataArray Name="forces" NumberOfComponents="3" format="ascii" type="Float32">0 0 0 0.0 0.0 0.0 0.0 0.0 0.0 -0.00080028514495111835 0.0 0.0 0.00080028514473440282 0.0 0.0 0.0012948885650772013 0.0 0.0 0.0 0.0 0.0 -0.0020471914479618901 0.00070851772174844224 0.0 0.0033687724346774615 0.001182098928609642 0.0 -0.00080179437439653611 0.0 0.0 0.0043316169265708027 0.0 0.0 -0.00069030558333874363 0.00014479969105429558 0.0 -0.00092838523784166682 0.0 0.0 0.00092840875721833527 0.0 0.0 0.00069026852691925493 0.00014480090371509906 0.0 -0.031651628525224851 0.0 0.0 -0.020659133321942136 0.0 0.0 -0.010992495231164412 0.0 0.0 </DataArray>
<DataArray Name="radii" format="ascii" type="Float32">0 1.375 1.375 1.375 1.375 1.375 1.375 1.375 1.375 1.375 1.375 1.375 1.375 1.375 1.375 1.375 1.375 1.375 </DataArray>
</PointData>
<CellData/>
</Piece>
</UnstructuredGrid>
</VTKFile>
