<?xml version="1.0" ?>
<VTKFile byte_order="LittleEndian" type="UnstructuredGrid" version="0.1">
<UnstructuredGrid>
<Piece NumberOfCells="0" NumberOfPoints="313">
<Points>
<DataArray NumberOfComponents="3" format="ascii" type="Float32">24.841757950227475 9.4230719679585491 2 40.727858751554145 18.195211063787795 2 51.707417137084263 17.237613870237954 2 74.526699961085882 19.799990548980002 2 75.178065487823446 9.9627359617573745 2 48.709770405416926 6.6141281801015195 2 57.74157295800574 13.895858607040669 2 74.121389657850756 13.346748997368065 2 86.426687028888097 16.039889299510314 2 27.22937223575903 6.451077099553169 2 43.369850120138999 4.8938625098569579 2 52.862095455004969 7.2643820317221595 2 65.728713066766034 13.184930122670588 2 79.689990172067667 13.73089699263557 2 44.279834460388926 1.6 2 60.871332903336452 14.090311262694561 2 73.754521099500835 1.6 2 83.668475686883497 1.6 2 22.060461326811129 5.7583298491952011 2 42.664901948323291 21.17164580375735 2 53.333046948312635 8.6185086069308632 2 69.208414728208666 17.30842265567993 2 81.191438716855203 8.9729175796881862 2 29.522936256848034 15.202468146531428 2 51.241264406151949 3.5485684185770894 2 56.006006522963489 17.700196607334036 2 70.65482166767012 5.8452564652666839 2 88.486232252484314 5.9671454888984368 2 31.067047432285438 5.3352030115787805 2 38.706935667324551 7.7171977271403263 2 57.687716622562881 1.6 2 70.635424538894412 10.315697062712379 2 88.546244344603366 16.803239411476405 2 12.418843743134495 12.410077722633542 2 44.982925081317077 10.540127059478994 2 57.866590228369631 7.6650477896875202 2 76.588744601522123 1.6 2 83.437147552974693 4.2545408249587071 2 22.701651996949202 10.736108695633817 2 42.385468259517552 12.212865005425131 2 50.203554827046453 10.790375277085806 2 77.806367584264876 13.791932033908003 2 76.694562391711102 6.1494472002714815 2 6.7893334830841461 6.6820723297116693 2 20.273977613451514 10.758923293443262 2 50.25756896279011 1.6 2 60.703259781903604 21.431689988024559 2 73.360414704701597 3.487067011808981 2 87.400267981203683 8.9946507004492027 2 32.409458247409496 15.044064835876235 2 41.728849825566876 9.8970738120792685 2 53.124553613016495 1.6 2 64.197461963365058 19.67083324782886 2 84.073142321831796 14.924980141656519 2 44.015379557321005 6.375430248080832 2 59.891825016434687 9.9461308434191444 2 71.438497397549639 3.6438125114632416 2 82.139281478916445 3.4131463670860662 2 23.50963532772959 1.6 2 47.836376671535916 19.504387896052862 2 52.983747384847788 14.752608600013671 2 71.531757014770747 21.659456692641402 2 78.917493279194943 11.810331482945564 2 1.6 5.6591641173153819 2 21.690110939717627 13.398832508959144 2 49.390161582993045 9.3408445643656552 2 50.222993799983897 20.316972581675451 2 68.71043885205026 3.5281142247718562 2 89.435650870411834 1.6 2 27.641438934750688 3.6907436656393697 2 38.070563268970076 17.008097922489569 2 54.623967319765114 1.6 2 67.505317287419302 8.2829708368381834 2 80.765835723636044 21.758135636791472 2 45.494894133943347 12.272267216447172 2 54.971819633855134 11.198501804325437 2 79.009950585878997 6.8317612581758205 2 85.781850472289847 6.2298648133908907 2 20.22786012835866 8.1431983591023869 2 44.425586979620626 15.044917637841618 2 48.638409298411048 16.339986643457109 2 77.857652380933814 20.558531033183858 2 73.988812899388705 10.832779178337347 2 15.41405610576993 8.2105727104388695 2 47.935477067336073 3.536827556980541 2 56.808732217031718 15.75568206681625 2 71.324532795696584 13.092527008933649 2 89.031066478466201 12.375739437280242 2 25.241899474638636 5.4328092951493918 2 41.540554051372432 2.5895337507903116 2 56.218567249829732 6.353695166940085 2 66.100281602295837 16.000429459193811 2 78.785483552980125 18.026175797856972 2 46.328765640434312 3.1488073596805148 2 59.360365472631898 15.566812707413561 2 75.116049218436558 3.4348992005593257 2 86.526097589231227 1.6 2 44.973724887672311 17.390011039382326 2 51.274432973921179 8.2258887053708367 2 68.858122612315427 12.772485916055421 2 82.76384140950961 9.1492465430291663 2 4.6960740801738572 1.6 2 24.378763480838089 15.21317762651411 2 51.569164047777228 5.9549841104340215 2 54.392270737863761 21.831597891636655 2 68.929006647222536 7.6014476468106924 2 86.233744003578011 4.3036758745551964 2 30.593106226184663 1.6 2 39.998518338597641 10.83370491771951 2 58.406313096646478 4.1081705008962413 2 72.52837344236562 8.4040309256945154 2 86.417244296225135 19.086567206314452 2 15.214149896965255 11.416920528327399 2 45.53494912219972 6.9206220957299545 2 60.881690825055074 7.0945672178899626 2 77.423914323149802 4.7047549612861177 2 81.764929381547205 6.3020371955908487 2 41.44578405396409 13.848706978726662 2 51.233335058482062 15.112215394471301 2 77.035549915300138 11.834096865290318 2 79.214622497790288 5.4456522296205376 2 6.2404870525665235 3.9181953556040332 2 18.730091582610978 13.158710315298579 2 48.800893971951851 1.6 2 57.627015945352589 19.886340033832642 2 74.639980349641419 6.1375948587388436 2 90.627851763319725 10.227143729355941 2 28.546173497472068 12.167716841115189 2 39.923036188827993 6.2547025699440582 2 52.688548192933531 3.654902538103928 2 66.613977080743282 21.302413012932899 2 81.953385909841472 11.591579646781629 2 7.878550827856456 9.3290682873963355 2 45.982854062602897 4.9864507812164041 2 57.811867241582902 9.0694983949888304 2 69.79299691993063 1.6 2 79.483155511785213 1.6 2 20.261646659906123 3.345378184359137 2 46.400312101054681 14.900287425336087 2 52.913493999241112 12.375212394781952 2 73.423374574538855 17.607016400566337 2 78.048627669005867 8.8903808684668668 2 1.6 8.709359539307977 2 24.365530770375486 12.562513751616606 2 47.095604311194968 10.894593493001191 2 51.661553788482919 22.662416685990138 2 67.084280982183174 1.6 2 87.626802818311532 3.8759536852105096 2 25.390734572137923 1.6 2 38.216792350212735 14.364445234370864 2 54.327460381277042 3.3288668874101019 2 66.414336727728696 10.977597181021105 2 80.699333030282673 19.116736312956203 2 47.269982218245509 13.621961632427579 2 55.81438352169031 7.9976971643713473 2 81.228236735099699 4.8980040734528716 2 84.141782816861976 12.821414695621019 2 26.242025375243266 11.183931165749813 2 38.662964894410564 19.942759787978929 2 53.830313452784871 16.771302859227351 2 76.344305944929147 17.984885728111099 2 75.405840771358299 8.3505819118996278 2 47.173494439447083 5.9752596161149789 2 58.605060349816235 11.199639690354029 2 74.830398462912768 16.149051637176303 2 86.22059943842568 13.739509295083687 2 26.736166856899047 8.1440464573822258 2 43.184285225033399 3.4696711845965029 2 54.520441905210149 6.6506012752318213 2 64.431515136485771 14.604436167298198 2 80.10486331427424 15.916408194051799 2 42.866396022821768 1.6 2 59.27934862872592 12.795662306511771 2 72.426107036229112 1.6 2 85.070706273363342 1.6 2 24.278739077962353 6.9512051146373324 2 45.479308729656651 22.716632862167447 2 53.260376170948589 10.455066827507848 2 70.083664602585998 14.50261272255646 2 79.466382821499877 9.4865857902807935 2 27.09619637043177 16.972911589204369 2 50.350841386418729 5.3359527392070039 2 54.743959261864582 19.316514664288089 2 72.741081170159973 6.2729090055954666 2 87.248667535951867 6.9340798062834192 2 32.037776098606344 3.3026241632563504 2 39.56039253951618 9.1188313466915982 2 57.23316524775943 2.8449626295758002 2 69.904783756763905 8.8094182338011429 2 89.417834716999408 19.434517159429671 2 12.746352289480944 9.2534202788000002 2 44.090968483839958 8.6172141444716406 2 59.062732934341483 6.3288239627851883 2 78.057796585610276 1.6 2 84.104011693019572 5.7158566695335029 2 22.418775828912331 8.334488148797055 2 43.168566309804291 10.473609882427438 2 48.288488665811258 11.905046900869079 2 76.055274767313463 14.781148146795136 2 77.084650645404338 7.5534823755680796 2 17.856674216138167 7.3451372398198407 2 49.694649452497082 3.4462450207877056 2 60.278712304495556 18.769932476323785 2 75.379383361720357 4.8867517528131117 2 85.689005144983298 9.0475789961167674 2 30.74910297621177 12.62289637123512 2 41.325162155061854 7.9630594313440852 2 51.734664538509016 1.6 2 66.617200715624875 18.307925397653793 2 82.181393005655579 14.978269289545468 2 42.717590508311474 7.420794303460279 2 61.280699300614238 10.737165384194569 2 72.799604934435905 4.7783922960973921 2 82.3058181636451 1.6 2 21.320081272421969 1.6 2 45.451177296254698 19.982505080314663 2 54.641037574129108 13.246469860577543 2 71.561888545633565 18.946076291424298 2 80.270315087739874 10.942350306825983 2 4.0038685224753605 6.6048644618548717 2 21.652073613784768 16.266870974232649 2 47.863365580147033 9.2344815260992128 2 52.440112521821042 19.551206435015636 2 70.043736932737161 4.2545033880403649 2 90.849494298557332 1.6 2 29.706133029699764 3.9288054165132515 2 35.764425433768388 18.444608102465168 2 55.999972441425712 1.6 2 67.683100645167372 10.150256946715695 2 83.48875253636146 20.118053940944939 2 44.031801529201971 13.215696853080996 2 56.54566065776946 12.505200938678716 2 80.393966146999929 7.4973410476644631 2 84.577193857433542 7.9966919181709724 2 19.512293400738187 5.4754555163615057 2 42.590526649414606 15.921413921995804 2 49.852762052648607 17.834699975929716 2 75.38844845361092 22.300636255980478 2 72.35460718977896 12.018046544266147 2 17.710442599799372 10.243481466267335 2 48.637738548698259 4.8264701396744725 2 55.276045899292114 14.878075158628567 2 72.998738280602254 14.817701966491745 2 86.948510365298617 11.792706369968126 2 25.475193840981945 3.7708058504652748 2 40.785639183345374 1.6 2 56.073736779375949 4.0877108736853272 2 68.041352318828856 15.475513951127025 2 77.833246039950339 15.950341545039254 2 45.71507202077359 1.6 2 61.45185722439777 16.557022020599987 2 75.167122189255039 1.6 2 87.873408316872073 1.6 2 43.069486091474694 18.481007511292866 2 51.648008691508515 10.126923848945315 2 69.376680066895787 11.252306952243604 2 83.510443045148236 10.643621565960876 2 1.6 1.6 2 24.201441434735223 18.099798711997629 2 49.961341504245141 7.532008464863619 2 57.231340172038564 22.462224305773617 2 71.078070210379124 7.2780022216014997 2 84.898178935512533 3.435899515260409 2 28.992391806799244 1.6 2 39.714611768798811 12.519176772767437 2 57.737100594357216 5.4569889566062209 2 72.366688465059951 9.9733720396897247 2 84.323210396583193 17.366136609990562 2 15.992419163684229 14.466765509364407 2 47.16066645648948 7.7843355260687588 2 60.096200993688171 8.2846485411539437 2 77.077247072829309 3.2087672720061464 2 83.066021820926153 7.2109312980049856 2 40.205198449865115 15.620782538990655 2 49.806091788318319 12.710049499152234 2 75.423245058968334 12.526981833882552 2 78.761363261730239 3.7065250567131316 2 3.2624513511877353 3.7565440619677832 2 18.650802038473362 16.173902257565079 2 47.336782650721609 1.6 2 58.523896793141091 17.469207528203718 2 74.061215748922749 7.7158795858483789 2 88.660046068976129 10.071552806318635 2 28.11087917896279 9.5031741475970577 2 38.987041142203857 5.1133514328696261 2 53.119603108515463 5.3770975640102394 2 69.03119514860893 19.892232381521531 2 81.598949527479533 13.190538610581967 2 6.1793746314651461 11.968048939231521 2 44.915789936255941 3.886397257343043 2 56.856948289087441 10.538000027799768 2 71.074598814175332 1.6 2 80.846063619759221 1.6 2 22.979113080394679 3.8443381053149306 2 46.873988630485293 17.191819760003217 2 51.487630733361435 12.780263769302893 2 71.371741276801359 16.207975942468568 2 77.023852643667169 10.196156246546018 2 4.5786878846956931 9.4323241654165066 2 26.879334116036638 14.047892872647273 2 45.809701191589561 8.948052533335968 2 48.505267372954187 22.485775337591654 2 68.377411377179484 1.6 2 89.125817535241069 3.9049827801615171 2 27.238098585880245 1.6 2 37.358538747569369 12.127270815187583 2 54.88680475049582 4.8965252073221981 2 67.276143774271887 13.283740809669139 2 82.102620506464547 17.346228314895196 2 49.327763457325155 14.698151247427587 2 55.126182830605408 9.3234407156111807 2 80.258673510291231 3.5799911687333483 2 85.339292304302177 10.924404516618564 2 </DataArray>
</Points>
<Cells>
<DataArray Name="connectivity" format="ascii" type="Int32">0</DataArray>
<DataArray Name="offsets" format="ascii" type="Int32">0</DataArray>
<DataArray Name="types" format="ascii" type="UInt8">1</DataArray>
</Cells>
<PointData>
<DataArray Name="Points" NumberOfComponents="3" format="ascii" type="Float32">24.841757950227475 9.4230719679585491 2 40.727858751554145 18.195211063787795 2 51.707417137084263 17.237613870237954 2 74.526699961085882 19.799990548980002 2 75.178065487823446 9.9627359617573745 2 48.709770405416926 6.6141281801015195 2 57.74157295800574 13.895858607040669 2 74.121389657850756 13.346748997368065 2 86.426687028888097 16.039889299510314 2 27.22937223575903 6.451077099553169 2 43.369850120138999 4.8938625098569579 2 52.862095455004969 7.2643820317221595 2 65.728713066766034 13.184930122670588 2 79.689990172067667 13.73089699263557 2 44.279834460388926 1.6 2 60.871332903336452 14.090311262694561 2 73.754521099500835 1.6 2 83.668475686883497 1.6 2 22.060461326811129 5.7583298491952011 2 42.664901948323291 21.17164580375735 2 53.333046948312635 8.6185086069308632 2 69.208414728208666 17.30842265567993 2 81.191438716855203 8.9729175796881862 2 29.522936256848034 15.202468146531428 2 51.241264406151949 3.5485684185770894 2 56.006006522963489 17.700196607334036 2 70.65482166767012 5.8452564652666839 2 88.486232252484314 5.9671454888984368 2 31.067047432285438 5.3352030115787805 2 38.706935667324551 7.7171977271403263 2 57.687716622562881 1.6 2 70.635424538894412 10.315697062712379 2 88.546244344603366 16.803239411476405 2 12.418843743134495 12.410077722633542 2 44.982925081317077 10.540127059478994 2 57.866590228369631 7.6650477896875202 2 76.588744601522123 1.6 2 83.437147552974693 4.2545408249587071 2 22.701651996949202 10.736108695633817 2 42.385468259517552 12.212865005425131 2 50.203554827046453 10.790375277085806 2 77.806367584264876 13.791932033908003 2 76.694562391711102 6.1494472002714815 2 6.7893334830841461 6.6820723297116693 2 20.273977613451514 10.758923293443262 2 50.25756896279011 1.6 2 60.703259781903604 21.431689988024559 2 73.360414704701597 3.487067011808981 2 87.400267981203683 8.9946507004492027 2 32.409458247409496 15.044064835876235 2 41.728849825566876 9.8970738120792685 2 53.124553613016495 1.6 2 64.197461963365058 19.67083324782886 2 84.073142321831796 14.924980141656519 2 44.015379557321005 6.375430248080832 2 59.891825016434687 9.9461308434191444 2 71.438497397549639 3.6438125114632416 2 82.139281478916445 3.4131463670860662 2 23.50963532772959 1.6 2 47.836376671535916 19.504387896052862 2 52.983747384847788 14.752608600013671 2 71.531757014770747 21.659456692641402 2 78.917493279194943 11.810331482945564 2 1.6 5.6591641173153819 2 21.690110939717627 13.398832508959144 2 49.390161582993045 9.3408445643656552 2 50.222993799983897 20.316972581675451 2 68.71043885205026 3.5281142247718562 2 89.435650870411834 1.6 2 27.641438934750688 3.6907436656393697 2 38.070563268970076 17.008097922489569 2 54.623967319765114 1.6 2 67.505317287419302 8.2829708368381834 2 80.765835723636044 21.758135636791472 2 45.494894133943347 12.272267216447172 2 54.971819633855134 11.198501804325437 2 79.009950585878997 6.8317612581758205 2 85.781850472289847 6.2298648133908907 2 20.22786012835866 8.1431983591023869 2 44.425586979620626 15.044917637841618 2 48.638409298411048 16.339986643457109 2 77.857652380933814 20.558531033183858 2 73.988812899388705 10.832779178337347 2 15.41405610576993 8.2105727104388695 2 47.935477067336073 3.536827556980541 2 56.808732217031718 15.75568206681625 2 71.324532795696584 13.092527008933649 2 89.031066478466201 12.375739437280242 2 25.241899474638636 5.4328092951493918 2 41.540554051372432 2.5895337507903116 2 56.218567249829732 6.353695166940085 2 66.100281602295837 16.000429459193811 2 78.785483552980125 18.026175797856972 2 46.328765640434312 3.1488073596805148 2 59.360365472631898 15.566812707413561 2 75.116049218436558 3.4348992005593257 2 86.526097589231227 1.6 2 44.973724887672311 17.390011039382326 2 51.274432973921179 8.2258887053708367 2 68.858122612315427 12.772485916055421 2 82.76384140950961 9.1492465430291663 2 4.6960740801738572 1.6 2 24.378763480838089 15.21317762651411 2 51.569164047777228 5.9549841104340215 2 54.392270737863761 21.831597891636655 2 68.929006647222536 7.6014476468106924 2 86.233744003578011 4.3036758745551964 2 30.593106226184663 1.6 2 39.998518338597641 10.83370491771951 2 58.406313096646478 4.1081705008962413 2 72.52837344236562 8.4040309256945154 2 86.417244296225135 19.086567206314452 2 15.214149896965255 11.416920528327399 2 45.53494912219972 6.9206220957299545 2 60.881690825055074 7.0945672178899626 2 77.423914323149802 4.7047549612861177 2 81.764929381547205 6.3020371955908487 2 41.44578405396409 13.848706978726662 2 51.233335058482062 15.112215394471301 2 77.035549915300138 11.834096865290318 2 79.214622497790288 5.4456522296205376 2 6.2404870525665235 3.9181953556040332 2 18.730091582610978 13.158710315298579 2 48.800893971951851 1.6 2 57.627015945352589 19.886340033832642 2 74.639980349641419 6.1375948587388436 2 90.627851763319725 10.227143729355941 2 28.546173497472068 12.167716841115189 2 39.923036188827993 6.2547025699440582 2 52.688548192933531 3.654902538103928 2 66.613977080743282 21.302413012932899 2 81.953385909841472 11.591579646781629 2 7.878550827856456 9.3290682873963355 2 45.982854062602897 4.9864507812164041 2 57.811867241582902 9.0694983949888304 2 69.79299691993063 1.6 2 79.483155511785213 1.6 2 20.261646659906123 3.345378184359137 2 46.400312101054681 14.900287425336087 2 52.913493999241112 12.375212394781952 2 73.423374574538855 17.607016400566337 2 78.048627669005867 8.8903808684668668 2 1.6 8.709359539307977 2 24.365530770375486 12.562513751616606 2 47.095604311194968 10.894593493001191 2 51.661553788482919 22.662416685990138 2 67.084280982183174 1.6 2 87.626802818311532 3.8759536852105096 2 25.390734572137923 1.6 2 38.216792350212735 14.364445234370864 2 54.327460381277042 3.3288668874101019 2 66.414336727728696 10.977597181021105 2 80.699333030282673 19.116736312956203 2 47.269982218245509 13.621961632427579 2 55.81438352169031 7.9976971643713473 2 81.228236735099699 4.8980040734528716 2 84.141782816861976 12.821414695621019 2 26.242025375243266 11.183931165749813 2 38.662964894410564 19.942759787978929 2 53.830313452784871 16.771302859227351 2 76.344305944929147 17.984885728111099 2 75.405840771358299 8.3505819118996278 2 47.173494439447083 5.9752596161149789 2 58.605060349816235 11.199639690354029 2 74.830398462912768 16.149051637176303 2 86.22059943842568 13.739509295083687 2 26.736166856899047 8.1440464573822258 2 43.184285225033399 3.4696711845965029 2 54.520441905210149 6.6506012752318213 2 64.431515136485771 14.604436167298198 2 80.10486331427424 15.916408194051799 2 42.866396022821768 1.6 2 59.27934862872592 12.795662306511771 2 72.426107036229112 1.6 2 85.070706273363342 1.6 2 24.278739077962353 6.9512051146373324 2 45.479308729656651 22.716632862167447 2 53.260376170948589 10.455066827507848 2 70.083664602585998 14.50261272255646 2 79.466382821499877 9.4865857902807935 2 27.09619637043177 16.972911589204369 2 50.350841386418729 5.3359527392070039 2 54.743959261864582 19.316514664288089 2 72.741081170159973 6.2729090055954666 2 87.248667535951867 6.9340798062834192 2 32.037776098606344 3.3026241632563504 2 39.56039253951618 9.1188313466915982 2 57.23316524775943 2.8449626295758002 2 69.904783756763905 8.8094182338011429 2 89.417834716999408 19.434517159429671 2 12.746352289480944 9.2534202788000002 2 44.090968483839958 8.6172141444716406 2 59.062732934341483 6.3288239627851883 2 78.057796585610276 1.6 2 84.104011693019572 5.7158566695335029 2 22.418775828912331 8.334488148797055 2 43.168566309804291 10.473609882427438 2 48.288488665811258 11.905046900869079 2 76.055274767313463 14.781148146795136 2 77.084650645404338 7.5534823755680796 2 17.856674216138167 7.3451372398198407 2 49.694649452497082 3.4462450207877056 2 60.278712304495556 18.769932476323785 2 75.379383361720357 4.8867517528131117 2 85.689005144983298 9.0475789961167674 2 30.74910297621177 12.62289637123512 2 41.325162155061854 7.9630594313440852 2 51.734664538509016 1.6 2 66.617200715624875 18.307925397653793 2 82.181393005655579 14.978269289545468 2 42.717590508311474 7.420794303460279 2 61.280699300614238 10.737165384194569 2 72.799604934435905 4.7783922960973921 2 82.3058181636451 1.6 2 21.320081272421969 1.6 2 45.451177296254698 19.982505080314663 2 54.641037574129108 13.246469860577543 2 71.561888545633565 18.946076291424298 2 80.270315087739874 10.942350306825983 2 4.0038685224753605 6.6048644618548717 2 21.652073613784768 16.266870974232649 2 47.863365580147033 9.2344815260992128 2 52.440112521821042 19.551206435015636 2 70.043736932737161 4.2545033880403649 2 90.849494298557332 1.6 2 29.706133029699764 3.9288054165132515 2 35.764425433768388 18.444608102465168 2 55.999972441425712 1.6 2 67.683100645167372 10.150256946715695 2 83.48875253636146 20.118053940944939 2 44.031801529201971 13.215696853080996 2 56.54566065776946 12.505200938678716 2 80.393966146999929 7.4973410476644631 2 84.577193857433542 7.9966919181709724 2 19.512293400738187 5.4754555163615057 2 42.590526649414606 15.921413921995804 2 49.852762052648607 17.834699975929716 2 75.38844845361092 22.300636255980478 2 72.35460718977896 12.018046544266147 2 17.710442599799372 10.243481466267335 2 48.637738548698259 4.8264701396744725 2 55.276045899292114 14.878075158628567 2 72.998738280602254 14.817701966491745 2 86.948510365298617 11.792706369968126 2 25.475193840981945 3.7708058504652748 2 40.785639183345374 1.6 2 56.073736779375949 4.0877108736853272 2 68.041352318828856 15.475513951127025 2 77.833246039950339 15.950341545039254 2 45.71507202077359 1.6 2 61.45185722439777 16.557022020599987 2 75.167122189255039 1.6 2 87.873408316872073 1.6 2 43.069486091474694 18.481007511292866 2 51.648008691508515 10.126923848945315 2 69.376680066895787 11.252306952243604 2 83.510443045148236 10.643621565960876 2 1.6 1.6 2 24.201441434735223 18.099798711997629 2 49.961341504245141 7.532008464863619 2 57.231340172038564 22.462224305773617 2 71.078070210379124 7.2780022216014997 2 84.898178935512533 3.435899515260409 2 28.992391806799244 1.6 2 39.714611768798811 12.519176772767437 2 57.737100594357216 5.4569889566062209 2 72.366688465059951 9.9733720396897247 2 84.323210396583193 17.366136609990562 2 15.992419163684229 14.466765509364407 2 47.16066645648948 7.7843355260687588 2 60.096200993688171 8.2846485411539437 2 77.077247072829309 3.2087672720061464 2 83.066021820926153 7.2109312980049856 2 40.205198449865115 15.620782538990655 2 49.806091788318319 12.710049499152234 2 75.423245058968334 12.526981833882552 2 78.761363261730239 3.7065250567131316 2 3.2624513511877353 3.7565440619677832 2 18.650802038473362 16.173902257565079 2 47.336782650721609 1.6 2 58.523896793141091 17.469207528203718 2 74.061215748922749 7.7158795858483789 2 88.660046068976129 10.071552806318635 2 28.11087917896279 9.5031741475970577 2 38.987041142203857 5.1133514328696261 2 53.119603108515463 5.3770975640102394 2 69.03119514860893 19.892232381521531 2 81.598949527479533 13.190538610581967 2 6.1793746314651461 11.968048939231521 2 44.915789936255941 3.886397257343043 2 56.856948289087441 10.538000027799768 2 71.074598814175332 1.6 2 80.846063619759221 1.6 2 22.979113080394679 3.8443381053149306 2 46.873988630485293 17.191819760003217 2 51.487630733361435 12.780263769302893 2 71.371741276801359 16.207975942468568 2 77.023852643667169 10.196156246546018 2 4.5786878846956931 9.4323241654165066 2 26.879334116036638 14.047892872647273 2 45.809701191589561 8.948052533335968 2 48.505267372954187 22.485775337591654 2 68.377411377179484 1.6 2 89.125817535241069 3.9049827801615171 2 27.238098585880245 1.6 2 37.358538747569369 12.127270815187583 2 54.88680475049582 4.8965252073221981 2 67.276143774271887 13.283740809669139 2 82.102620506464547 17.346228314895196 2 49.327763457325155 14.698151247427587 2 55.126182830605408 9.3234407156111807 2 80.258673510291231 3.5799911687333483 2 85.339292304302177 10.924404516618564 2 </DataArray>