<?xml version="1.0" ?>
<VTKFile byte_order="LittleEndian" type="UnstructuredGrid" version="0.1">
<UnstructuredGrid>
<Piece NumberOfCells="0" NumberOfPoints="32">
<Points>
<DataArray NumberOfComponents="3" format="ascii" type="Float32">1.3100524996925096 7.3005763704275637 2 7.865790614394049 2.7777570784803811 2 17.275959110450486 1.201552918958347 2 39.196939407718361 1.201552918958347 2 50.115022554667526 7.2204855271483988 2 61.793995916639908 1.201552918958347 2 68.023933698553265 10.577375672314737 2 83.343552796677287 1.201552918958347 2 1.201552918958347 1.201552918958347 2 11.040485396884391 4.2422741053357065 2 19.334913834667883 10.420425349221265 2 38.864333576389569 3.8112569338421038 2 47.76052694223398 6.95598816730209 2 65.352202367753236 1.201552918958347 2 67.102168971634853 9.0549213426249437 2 83.88397251481075 5.3875005699103182 2 1.201552918958347 9.2667021174010102 2 8.3340373583321199 1.201552918958347 2 18.574185809652622 1.201552918958347 2 40.524980246885313 1.201552918958347 2 51.15690932674994 8.1430226883313352 2 62.981942053409242 1.201552918958347 2 67.121455810282441 12.053610178499913 2 84.625932226011571 1.201552918958347 2 2.7490528103658849 1.201552918958347 2 9.8634805862392412 3.1150759457929227 2 17.732009656963204 11.696744598765871 2 39.835356705102029 2.7809520240431547 2 48.898893402122916 7.8412246313394878 2 64.14100637550402 1.201552918958347 2 65.93586842051883 7.5915064881627812 2 84.952185002454257 6.1538975795757365 2 </DataArray>
</Points>
<Cells>
<DataArray Name="connectivity" format="ascii" type="Int32">0</DataArray>
<DataArray Name="offsets" format="ascii" type="Int32">0</DataArray>
<DataArray Name="types" format="ascii" type="UInt8">1</DataArray>
</Cells>
<PointData>
<DataArray Name="Points" NumberOfComponents="3" format="ascii" type="Float32">1.3100524996925096 7.3005763704275637 2 7.865790614394049 2.7777570784803811 2 17.275959110450486 1.201552918958347 2 39.196939407718361 1.201552918958347 2 50.115022554667526 7.2204855271483988 2 61.793995916639908 1.201552918958347 2 68.023933698553265 10.577375672314737 2 83.343552796677287 1.201552918958347 2 1.201552918958347 1.201552918958347 2 11.040485396884391 4.2422741053357065 2 19.334913834667883 10.420425349221265 2 38.864333576389569 3.8112569338421038 2 47.76052694223398 6.95598816730209 2 65.352202367753236 1.201552918958347 2 67.102168971634853 9.0549213426249437 2 83.88397251481075 5.3875005699103182 2 1.201552918958347 9.2667021174010102 2 8.3340373583321199 1.201552918958347 2 18.574185809652622 1.201552918958347 2 40.524980246885313 1.201552918958347 2 51.15690932674994 8.1430226883313352 2 62.981942053409242 1.201552918958347 2 67.121455810282441 12.053610178499913 2 84.625932226011571 1.201552918958347 2 2.7490528103658849 1.201552918958347 2 9.8634805862392412 3.1150759457929227 2 17.732009656963204 11.696744598765871 2 39.835356705102029 2.7809520240431547 2 48.898893402122916 7.8412246313394878 2 64.14100637550402 1.201552918958347 2 65.93586842051883 7.5915064881627812 2 84.952185002454257 6.1538975795757365 2 </DataArray>
<DataArray Name="forces" NumberOfComponents="3" format="ascii" type="Float32">-0.22360198902316106 0.1936567019409956 0.0 -0.004597472936373137 0.17927520854875406 0.0 -0.027145465128603607 -0.63247669659225259 0.0 -0.040346896537679366 -1.0183825349221074 0.0 -0.037754749212504657 0.21514982455202109 0.0 -0.041491280177218259 -1.2418620376776812 0.0 -0.074726988756805168 0.25981317220774647 0.0 0.018424990788754592 -1.1743544974321103 0.0 -0.99575496483936532 -0.7992404474319621 0.0 -0.051857651054837528 0.17894928458106918 0.0 -0.19976189345464751 0.27435772928243451 0.0 -0.020783622785802813 0.13236536639049212 0.0 0.012074559094645165 0.19741183031982479 0.0 -0.036318465588065951 -1.1426093267254993 0.0 -0.016152792306771802 0.18193327436580126 0.0 -0.0064329351533994883 -0.10521180290307586 0.0 -0.35890939992361015 0.32554403204544002 0.0 -0.05496353096035389 -0.98497546426367144 0.0 -0.020170728270598435 -0.80764070909454078 0.0 -0.031445333205317394 -1.1604073497468503 0.0 -0.033121409640035931 0.24060403018659632 0.0 -0.038918296444315992 -0.853769358210274 0.0 -0.0066266666839001065 0.39289787218617789 0.0 0.0095045534227415629 -1.0200467219811982 0.0 0.023598527647561818 -0.63221612927085635 0.0 -0.028774353449877804 0.097150311093702868 0.0 -0.15734674971867008 0.37617208586841189 0.0 -0.041585064133181526 0.047701681307962929 0.0 -0.026407148308287165 0.27575720569938 0.0 -0.03123423743504361 -0.84793306569283933 0.0 -0.068794424001888732 0.15579922312464037 0.0 -0.10044786635527034 0.2587483051900864 0.0 </DataArray>
<DataArray Name="radii" format="ascii" type="Float32">1.201552918958347 1.201552918958347 1.201552918958347 1.201552918958347 1.201552918958347 1.201552918958347 1.201552918958347 1.201552918958347 1.201552918958347 1.201552918958347 1.201552918958347 1.201552918958347 1.201552918958347 1.201552918958347 1.201552918958347 1.201552918958347 1.201552918958347 1.201552918958347 1.201552918958347 1.201552918958347 1.201552918958347 1.201552918958347 1.201552918958347 1.201552918958347 1.201552918958347 1.201552918958347 1.201552918958347 1.201552918958347 1.201552918958347 1.201552918958347 1.201552918958347 1.201552918958347 </DataArray>
</PointData>
<CellData/>
</Piece>
</UnstructuredGrid>
</VTKFile>
