<?xml version="1.0" ?>
<VTKFile byte_order="LittleEndian" type="UnstructuredGrid" version="0.1">
<UnstructuredGrid>
<Piece NumberOfCells="0" NumberOfPoints="16">
<Points>
<DataArray NumberOfComponents="3" format="ascii" type="Float32">1.9299422343811654 3.4824990966427007 2 10.675088387256251 1.2008657626710002 2 18.390933673321211 1.2008657626710002 2 39.095783160524427 1.2008657626710002 2 50.437486636406739 3.9829965115622965 2 63.617094760423718 1.2008657626710002 2 67.333223774268589 5.1031199545308734 2 83.778712206941648 1.2008657626710002 2 1.2008657626710002 1.2008657626710002 2 10.838126921053863 3.544917773785091 2 18.918894430337684 3.5996192248779462 2 38.188570265176274 3.6478588417702191 2 48.15997839148519 4.1574328643011862 2 65.881926129191925 1.2008657626710002 2 65.674016050830502 3.4750036417024894 2 83.801723567343956 3.5200917905162656 2 </DataArray>
</Points>
<Cells>
<DataArray Name="connectivity" format="ascii" type="Int32">0</DataArray>
<DataArray Name="offsets" format="ascii" type="Int32">0</DataArray>
<DataArray Name="types" format="ascii" type="UInt8">1</DataArray>
</Cells>
<PointData>
<DataArray Name="Points" NumberOfComponents="3" format="ascii" type="Float32">1.9299422343811654 3.4824990966427007 2 10.675088387256251 1.2008657626710002 2 18.390933673321211 1.2008657626710002 2 39.095783160524427 1.2008657626710002 2 50.437486636406739 3.9829965115622965 2 63.617094760423718 1.2008657626710002 2 67.333223774268589 5.1031199545308734 2 83.778712206941648 1.2008657626710002 2 1.2008657626710002 1.2008657626710002 2 10.838126921053863 3.544917773785091 2 18.918894430337684 3.5996192248779462 2 38.188570265176274 3.6478588417702191 2 48.15997839148519 4.1574328643011862 2 65.881926129191925 1.2008657626710002 2 65.674016050830502 3.4750036417024894 2 83.801723567343956 3.5200917905162656 2 </DataArray>
<DataArray Name="forces" NumberOfComponents="3" format="ascii" type="Float32">0.0016315160388996643 0.0051106735488673548 0.0 -0.06669644338016803 -0.093209957840777152 0.0 -0.034679990183840437 -0.097637023186310637 0.0 0.071283864037945732 -0.27104262541105512 0.0 0.012800968980350061 0.0094018389258090328 0.0 -0.094888028125047222 -0.17768680951648813 0.0 -0.018011213185301155 0.086819395712349895 0.0 0.0058702364157388982 -0.23548049527824613 0.0 -0.09040623061607167 -0.015907559110856645 0.0 0.0068362984559046103 0.017067777702594936 0.0 -0.028975086877531482 0.031096905187324685 0.0 -0.029735304833757276 0.059385751052338814 0.0 0.0038921103067273005 0.019035822213010554 0.0 -0.083035677209041925 -0.15255441175511392 0.0 -0.0054641541980586092 0.045376742760345992 0.0 -0.0022088092069572351 0.0060951996585505847 0.0 </DataArray>
<DataArray Name="radii" format="ascii" type="Float32">1.2008657626710002 1.2008657626710002 1.2008657626710002 1.2008657626710002 1.2008657626710002 1.2008657626710002 1.2008657626710002 1.2008657626710002 1.2008657626710002 1.2008657626710002 1.2008657626710002 1.2008657626710002 1.2008657626710002 1.2008657626710002 1.2008657626710002 1.2008657626710002 </DataArray>
</PointData>
<CellData/>
</Piece>
</UnstructuredGrid>
</VTKFile>
