<?xml version="1.0" ?>
<VTKFile byte_order="LittleEndian" type="UnstructuredGrid" version="0.1">
<UnstructuredGrid>
<Piece NumberOfCells="0" NumberOfPoints="40">
<Points>
<DataArray NumberOfComponents="3" format="ascii" type="Float32">0 0 0 34.54241228854395 11.159619039955953 2 39.088664818630541 7.1179141357968909 2 81.408560615543408 1 2 37.646801048686008 10.31069157786435 2 81.646074919383366 13.865351807346626 2 32.95917372181578 11.021245696423671 2 38.282135094810926 5.0453648408215326 2 81.215218593128995 12.244139421288327 2 34.956117354282064 4.447522030450707 2 37.796412161089037 1.4 2 80.37585882124921 1 2 33.736522487014383 12.674422230545982 2 35.973564155318051 9.1012010099241643 2 37.534888048221674 12.841735289585213 2 80.491668531304484 6.5554646195931436 2 40.974619356195504 1 2 35.094495726030424 1.2 2 39.350017705839285 1.4 2 82.187526216699681 7.4326116660774684 2 35.158188451259321 16.517682819468181 2 36.257471136211656 7.1021333415037429 2 79.106929976135248 15.376102174544226 2 36.122598426298062 3.1094664318111778 2 80.904483581264685 4.4767252159672459 2 32.968360041529209 16.044520012983952 2 36.125997454263995 5.1907267427510444 2 80.226919243425385 11.355419843831147 2 38.41174433555944 3.3863486009424446 2 38.743480329441908 16.389599281329861 2 36.303639796093549 1 2 81.022360252596428 2.3413688905306889 2 32.63504113499436 14.03947223996302 2 80.379669796119089 3.2651607239370803 2 36.752462930817572 14.966450813580542 2 37.259450334634359 4.3596718294062056 2 81.172049190615297 8.2153112767228258 2 38.814020190893295 18.789631622043768 2 37.318767676899775 2.7043727898811682 2 36.261235040989 10.954495997724353 2 </DataArray>
</Points>
<Cells>
<DataArray Name="connectivity" format="ascii" type="Int32">0</DataArray>
<DataArray Name="offsets" format="ascii" type="Int32">0</DataArray>
<DataArray Name="types" format="ascii" type="UInt8">1</DataArray>
</Cells>
<PointData>
<DataArray Name="Points" NumberOfComponents="3" format="ascii" type="Float32">0 0 0 34.54241228854395 11.159619039955953 2 39.088664818630541 7.1179141357968909 2 81.408560615543408 1 2 37.646801048686008 10.31069157786435 2 81.646074919383366 13.865351807346626 2 32.95917372181578 11.021245696423671 2 38.282135094810926 5.0453648408215326 2 81.215218593128995 12.244139421288327 2 34.956117354282064 4.447522030450707 2 37.796412161089037 1.4 2 80.37585882124921 1 2 33.736522487014383 12.674422230545982 2 35.973564155318051 9.1012010099241643 2 37.534888048221674 12.841735289585213 2 80.491668531304484 6.5554646195931436 2 40.974619356195504 1 2 35.094495726030424 1.2 2 39.350017705839285 1.4 2 82.187526216699681 7.4326116660774684 2 35.158188451259321 16.517682819468181 2 36.257471136211656 7.1021333415037429 2 79.106929976135248 15.376102174544226 2 36.122598426298062 3.1094664318111778 2 80.904483581264685 4.4767252159672459 2 32.968360041529209 16.044520012983952 2 36.125997454263995 5.1907267427510444 2 80.226919243425385 11.355419843831147 2 38.41174433555944 3.3863486009424446 2 38.743480329441908 16.389599281329861 2 36.303639796093549 1 2 81.022360252596428 2.3413688905306889 2 32.63504113499436 14.03947223996302 2 80.379669796119089 3.2651607239370803 2 36.752462930817572 14.966450813580542 2 37.259450334634359 4.3596718294062056 2 81.172049190615297 8.2153112767228258 2 38.814020190893295 18.789631622043768 2 37.318767676899775 2.7043727898811682 2 36.261235040989 10.954495997724353 2 </DataArray>
<DataArray Name="forces" NumberOfComponents="3" format="ascii" type="Float32">0 0 0 0.067746358158279896 0.24273347304643528 0.0 -0.12183909612886434 0.088620908273520704 0.0 -0.064094442416919417 -1.3300426889681507 0.0 -0.0089549106595779859 0.19458310841253657 0.0 -0.006493586355961839 0.30575637136828937 0.0 0.13545814263456635 0.15104974176368707 0.0 -0.107020196117183 0.044853541169972699 0.0 0.063466432657461214 0.27144274913888189 0.0 0.24496673185030113 -0.013269458741082762 0.0 -0.070580445593800528 -1.6754759951635716 0.0 -0.068511531944340315 -1.3214460412252027 0.0 0.13408734599247238 0.22474050805589518 0.0 0.067916205648236069 0.12825481057551358 0.0 -0.056186736242749835 0.19237721156567789 0.0 0.06391713890891848 0.035567222886688843 0.0 -0.10748263211231854 -1.6335121511118291 0.0 0.062578076138275249 -1.2822894931087057 0.0 -0.097999245258267975 -1.6108584507334585 0.0 0.060682982695251686 0.1196387440934592 0.0 0.038012793769861497 0.30124578487838571 0.0 0.028670802604159107 0.11386174097317264 0.0 0.04338772800913504 0.37577802914515801 0.0 0.049958792922292661 0.023650623209383326 0.0 0.022600765907464515 0.00055468470114411472 0.0 0.067188883672884281 0.40797219697555615 0.0 0.044160060177758878 0.072966192012031098 0.0 0.1086176518836986 0.26830749053955216 0.0 -0.094216082373338894 0.075796392310527205 0.0 -0.046600183099964276 0.40307157607416161 0.0 0.032503751800615974 -0.95193536475156981 0.0 0.0038531314905806413 -0.0496537146131725 0.0 0.15138474092343918 0.3143712914384646 0.0 0.026240517430626553 0.066090229361227215 0.0 -0.099112408646996386 0.28458851897568654 0.0 -0.079160050868328835 0.058081620052853167 0.0 0.096968400588163084 0.12082664098845664 0.0 -0.095476576859297224 0.42738025966328097 0.0 -0.009156329601683777 0.017790093318941987 0.0 -0.028491496580634101 0.21486702084104856 0.0 </DataArray>
<DataArray Name="radii" format="ascii" type="Float32">0 1.2 1.4 1 1.2 1.2 1.2 1 1 1 1.4 1 1 1.2 1.4 1.4 1 1.2 1.4 1.4 1.4 1 1 1.2 1.2 1.4 1.4 1 1 1.2 1 1 1 1 1 1 1.2 1.2 1.4 1.4 </DataArray>
</PointData>
<CellData/>
</Piece>
</UnstructuredGrid>
</VTKFile>
