<?xml version="1.0" ?>
<VTKFile byte_order="LittleEndian" type="UnstructuredGrid" version="0.1">
<UnstructuredGrid>
<Piece NumberOfCells="0" NumberOfPoints="384">
<Points>
<DataArray NumberOfComponents="3" format="ascii" type="Float32">37.181111939301822 10.293142674360201 2 51.581270855525602 16.975330067045402 2 67.908072912197397 14.192494535771603 2 75.404015838187419 17.202162375006885 2 91.457471920271288 8.6007513255413333 2 93.033296126712685 1.5999999999999999 2 43.552344083990739 8.972845274897665 2 55.347707934645378 3.8164113813373532 2 74.237310677825192 11.326175702140834 2 80.576349593703455 2.9014758313187743 2 86.300351545154797 1.5999999999999999 2 98.4 8.5573778594115577 2 40.736291289394046 8.1202581660566722 2 53.16716840651258 8.6240537910528161 2 67.576942260803605 4.3821415360320781 2 82.771623569371414 11.995075661256172 2 87.340699473721116 1.5999999999999999 2 92.73270483471201 12.802685463609771 2 40.934445228985737 2.7114114593097609 2 59.535584884878581 7.910866797157027 2 71.103974700713025 10.9064979352884 2 75.312391287626895 1.5999999999999999 2 87.98227314162007 19.884218030384588 2 97.082048495184978 3.937457580761857 2 36.15005478769698 4.1245125634289339 2 52.310768286045892 19.310768606678149 2 66.588325609418604 20.344086375660474 2 77.136652745773503 12.948759139720238 2 87.848371095711897 13.352920360584335 2 94.605531084253769 8.9090828394624975 2 42.095869728762061 16.629164425660978 2 54.524273164470983 7.8796276934275724 2 71.230878148917 4.1891088609270515 2 77.270490145918458 7.4924511784818009 2 79.844145056436389 1.5999999999999999 2 98.4 19.63814688518848 2 38.893595019753057 11.82070158179298 2 54.745007581651784 5.0313058876056953 2 66.938981966736804 5.7102479815477576 2 82.401983444446515 10.372552382190726 2 87.463714273835748 8.2397583823635543 2 93.524373968688323 17.017024914857718 2 39.649954608076555 4.9666513520649547 2 57.435626013141196 1.5999999999999999 2 72.688336998976837 21.008398280505173 2 76.504598401925222 1.5999999999999999 2 84.613627930909857 8.3720324162881425 2 94.967393194790802 1.5999999999999999 2 35.700038401925809 5.6693770336601208 2 49.968578571829347 10.913221791736476 2 67.228360300815083 16.152549950461118 2 77.232600235507121 10.753807664474261 2 89.353094310421696 10.645409689189069 2 91.797135987960587 1.5999999999999999 2 44.612984013262171 14.674378408218582 2 53.882764528620591 1.5999999999999999 2 73.004776714166383 5.4667297555710954 2 80.302089839301857 5.7089123069670444 2 85.879672002544609 3.9489022745604951 2 96.508113342877337 10.4454525564846 2 38.830983008037812 10.336711789538167 2 50.650917993006885 6.5493474929479252 2 71.718717520536657 5.3890085719608223 2 81.733596001515039 18.392318472379092 2 90.113967424145102 4.2178715369223969 2 89.87426840656218 16.105273580257027 2 42.938725374316341 5.5618998394515673 2 56.675242200228567 7.9617310521067353 2 69.365453150053611 13.876100257164293 2 75.0131611058994 5.6227581509805109 2 84.676646891025456 13.675166418676763 2 98.4 3.3469752063334002 2 37.112494221276243 5.6779679179490046 2 56.147467601812153 22.804114514490522 2 64.792861849838104 13.385640348503403 2 80.263145962706218 20.502005627620836 2 90.099724447272308 18.50622983577577 2 93.609106265380049 6.0979546474175361 2 41.279669422697765 12.564991480188421 2 54.116315785153276 11.535098962643152 2 71.604495922799487 1.5999999999999999 2 78.47866362078112 11.22247675647305 2 83.825456358551932 3.6944837817467997 2 98.4 14.538392180471373 2 40.163604039931187 20.491407864933119 2 51.825090559032922 1.5999999999999999 2 70.953239828246438 7.9647848997226562 2 79.189446598183267 15.554082384732633 2 88.98008992993276 9.16986012407523 2 97.153310783932199 11.973722351568654 2 39.168962906719287 1.5999999999999999 2 58.922971510575486 4.1035315593197392 2 72.6303725651034 13.979848263519504 2 78.290966443471348 6.259382427379677 2 83.901482366815102 5.3434652424234486 2 95.265013863953342 5.0657607750039846 2 35.73334217289343 10.305510399347638 2 52.61927553853473 14.546862842628357 2 66.049288203039154 10.519743013754605 2 75.203036756981987 19.831451820551734 2 92.527150916396167 7.5137857165506894 2 93.938422643707128 3.3629449916376521 2 42.390384661857745 11.510546972502341 2 56.751163339305343 6.3734658966866302 2 75.140365162360865 9.878752640271383 2 78.775536211535737 1.5999999999999999 2 84.124115251456729 1.5999999999999999 2 96.477144170424538 6.4795193415906702 2 39.607272348591593 7.141995363362561 2 51.371687434304285 10.9398915099364 2 69.537089535242686 1.5999999999999999 2 83.930036404678148 9.7117561784523545 2 89.531346126431515 1.5999999999999999 2 91.152387658990222 13.383176927676294 2 40.233675561133005 3.9279469188851421 2 59.963082537353529 11.028981853859831 2 72.057630896201118 9.4097939506924888 2 76.061406760908653 2.8844892791940508 2 83.917827186155378 17.925602980586447 2 98.4 6.7309676568624637 2 37.16483151426759 1.5999999999999999 2 53.619658513784849 21.815587372813173 2 65.804767431607289 15.022634456969238 2 77.579843388085052 15.546958191759954 2 88.069748096885576 17.321168508899529 2 92.007598606596133 10.754708493666312 2 44.014478569757955 21.1411008915609 2 55.322730488710164 10.460931751044441 2 72.708386808299068 1.5999999999999999 2 76.077877568206119 6.7178947055175398 2 83.081202618642791 1.5999999999999999 2 96.575227348921103 15.682895412417745 2 38.002439131123502 14.00876497487635 2 53.772233389135458 4.0084869879416738 2 69.503433792401111 8.2831262196773583 2 79.73215066161201 12.29514840084834 2 85.656716618287732 10.178746325167063 2 95.495504016418167 19.890144972388601 2 40.444706166147547 6.0968780398796962 2 56.363390616449436 2.756572217523968 2 70.346945319590219 16.153942103840745 2 78.229413662808724 4.5587395582944525 2 83.229212685979519 8.0656987035335703 2 97.165547634828329 1.5999999999999999 2 35.397521897625786 2.9803431902489348 2 52.919102591969228 12.659693267453664 2 68.661320162164941 21.454493508354123 2 75.636345478161289 13.013079150059705 2 90.898531803102344 11.660136549918455 2 92.035146382726651 4.1810763800177417 2 43.26952199069801 14.897332225555267 2 56.306394168261598 1.5999999999999999 2 74.08590362276631 7.9400646861625557 2 82.290852091199028 3.0819276764038173 2 86.973484083878176 6.7318927837484397 2 95.504756015405064 11.767086676167846 2 38.015481576733727 7.4725386799798539 2 53.124339071372091 5.2683240958386239 2 68.601676005701236 5.651851199256547 2 84.204270927587231 15.715659011772905 2 86.911224376114859 3.0942823128698498 2 89.623568320636977 12.841892153194564 2 42.539718771715627 3.0874337396615323 2 58.244401394813735 9.63795164532055 2 70.953998936858142 14.218182447615066 2 74.602487732271641 2.496122329355881 2 85.892919903512933 15.615496880255302 2 98.4 1.5999999999999999 2 35.751367393787682 7.6342653813514278 2 56.586244114946453 16.493727127032699 2 63.139035971246862 13.225590077930136 2 77.600343989578903 20.421868278291225 2 92.626523523675061 19.156834222162249 2 90.888437658233997 5.3558358158359631 2 41.335516712971497 10.423419424591097 2 55.494203774791799 12.46756852462444 2 69.008916392306347 4.2533055218514431 2 80.45757637983408 7.8765884951832863 2 84.397569255202754 6.6970024844321943 2 98.4 11.193767563894056 2 40.961365385973181 15.585807360519938 2 52.225075115822101 4.1792720882132679 2 69.505489519006829 10.892800069841176 2 81.647120703259318 14.251027334913665 2 89.750277783835656 6.3199102837032388 2 94.916750683501519 15.017621699527625 2 37.768367692862682 2.7369980799849127 2 58.059479045351623 6.7996992535420375 2 72.208197871608306 15.834261338954258 2 77.151618415993553 5.604300371720627 2 81.71861040334862 7.2127923662932654 2 95.128344311979376 6.5797902192819242 2 37.800832310614403 9.0752861986015745 2 51.241833547359079 14.837142893341955 2 66.379941337500696 13.454532126664466 2 74.562544575791421 14.519361483686296 2 90.281102554367564 7.8045091115174401 2 92.520644950100859 2.7868386417774564 2 42.519844281504085 7.8480785491424463 2 54.513823866461045 2.4782438082234752 2 72.78043482501397 10.850180631972792 2 79.152986946035071 3.372649506445236 2 85.224036942572098 1.5999999999999999 2 96.627532399360035 9.0499159963348692 2 41.908057303331773 9.0920670092258611 2 53.97816050712094 9.8059737583926623 2 68.463369179599169 3.004764301388354 2 81.350630278945388 11.997033960442749 2 88.40711561765778 1.5999999999999999 2 93.903710622530951 12.136204616851302 2 40.96916104532481 1.5999999999999999 2 58.107259620463751 8.1694484319818841 2 72.074103598554601 12.342052964494577 2 73.919859673660639 1.5999999999999999 2 85.613013414637393 20.240589275076406 2 96.220256485483517 2.668210543202691 2 34.964710498076499 4.2864366904710129 2 54.138806465399178 19.105417432531418 2 66.339478823734311 17.938531835044447 2 78.450632742227555 13.444470396684297 2 86.287429563985455 13.553698744542471 2 93.99103074022274 7.5225853453714357 2 42.816769670826041 18.974432424289706 2 55.504269836448678 6.8185939477333806 2 71.480665400587341 2.9656446608562446 2 77.749309414882987 9.1136738705506559 2 80.967829113889451 1.5999999999999999 2 97.09259595226159 17.907403041008269 2 39.342453142281052 13.294248947311063 2 54.169837825293122 6.3364882620572462 2 66.925450354732419 7.0474585838063062 2 80.744884597997356 9.3878401798634137 2 87.456845915844497 9.7205073159759241 2 91.861184059922024 14.914978743430407 2 38.556985189362983 6.2010904141547076 2 58.06797501120213 2.5405032623803145 2 70.455993903910695 19.80585624896554 2 77.645250978391061 1.5999999999999999 2 86.031781406857704 8.6836411832132079 2 93.98433147330212 1.5999999999999999 2 34.656599265882811 6.6285459390505395 2 48.734004375370468 12.057928160961845 2 68.809725154046049 16.224916315889494 2 76.305625354085976 9.0637190484582337 2 88.309001588425289 11.751515437856494 2 90.672462292524912 1.5999999999999999 2 44.913024147171413 12.729228380840675 2 52.869552378277284 1.5999999999999999 2 73.477216591173345 6.6736176021873366 2 81.161324455805428 4.2257599608107137 2 86.409947627626352 5.4412666435413213 2 97.818613442459295 7.5833350335823031 2 40.179202377545614 9.5407710681647924 2 49.717134282120249 5.0008044658755555 2 70.21661126696462 5.2605097365827325 2 82.46477214751495 15.902870403769384 2 88.279708236855555 3.4175873839114721 2 91.633713486752626 16.852008603957596 2 41.621262763456997 6.8724494278549546 2 55.478858479478717 8.8647161560402132 2 68.562960235214661 12.36461304766628 2 73.845024270204249 3.7333171990391856 2 85.502634873911873 12.045051751328266 2 98.4 5.6370889907072108 2 37.194475449004294 3.9125555679535222 2 58.388854163884162 21.34931634933432 2 64.988940738536371 11.795326989580802 2 79.114287688701722 18.080040748979567 2 90.448139289564736 21.108016452831794 2 92.497971702913375 5.3796348876417106 2 40.659321615633566 14.02281704741787 2 52.767995783945565 10.815533891865622 2 70.49757790652771 1.5999999999999999 2 79.200347083792281 9.6418651032913871 2 85.09761469444112 4.848051399262304 2 98.4 12.851233928707371 2 41.155404898616574 18.571831367985336 2 51.157513159056805 2.604010873949302 2 70.424493202343612 9.483344413873164 2 80.709230705177845 16.557073717730901 2 88.814665461451995 7.6178992406239772 2 96.821211351447204 13.850271761349074 2 39.986238998329412 1.5999999999999999 2 57.557303179867283 5.0530319752998034 2 73.82878446630653 12.900991725963465 2 79.586018629628967 6.7827764190767912 2 82.666342715214114 4.340408493800366 2 95.322342234622027 3.7252735939790864 2 34.465681645308166 11.267944377816743 2 54.005439538547556 15.381935769397369 2 64.514852799398895 10.330213580414057 2 73.196001495445145 18.467338038739722 2 92.941577444630965 9.0260035933447345 2 93.837155628398023 4.5309431307354515 2 43.410942220307859 12.571582489769865 2 56.101026929251589 4.9392340810399702 2 73.658576931656583 9.4687588429614422 2 77.825912287172713 2.8363703976262831 2 84.851488894658104 2.847367771480656 2 96.560956470935565 5.0898941398228494 2 39.12431879557726 8.5797576764204013 2 51.958076419252833 9.3483998549682088 2 68.533786362404228 1.5999999999999999 2 84.20528501699151 11.218120909222971 2 89.538186052190511 2.8931250123299139 2 93.499894230275444 14.692850658444067 2 38.965878546631359 3.6329783149359587 2 59.625456785384408 9.3898558376486196 2 71.625571710254562 6.7304994697300167 2 76.815504437923195 3.9945534811169221 2 83.09732902394434 20.59723162606301 2 98.4 4.4793232465717887 2 38.226688453767466 1.5999999999999999 2 55.988916904329812 20.163376742193897 2 64.772465257505999 16.270030818378586 2 76.151856005634883 14.990861093554791 2 87.622662665275257 15.28962842098068 2 93.378054596742686 10.426433826472479 2 41.815877150566671 21.717231606517235 2 56.546999747597752 11.207188808765217 2 72.876797350045152 2.8841464224478379 2 75.426157621991209 7.8417392342433097 2 82.059695533376242 1.5999999999999999 2 98.4 16.551257441874995 2 38.75595712131976 15.22864509396423 2 52.772041640526844 3.0097741819974666 2 68.508131466495882 6.9827653678306945 2 80.326174451187526 10.802173136418038 2 86.903259046854075 11.222042702589526 2 95.048353823397392 17.429450901718308 2 41.585581070321808 5.4285301402764148 2 57.298309884274538 3.8571486442338605 2 71.196823471219346 17.919194012182384 2 79.673549262991244 4.5603472827391993 2 82.08016155070824 8.9215938214601724 2 95.937754489986432 1.5999999999999999 2 33.81534475812461 2.8066146830517806 2 51.510688453378627 12.795863967312155 2 68.532056133672839 18.458375665396552 2 75.872584609308689 11.368412500486098 2 90.577544696024219 9.810865653827463 2 91.071495419548086 3.120292289669587 2 42.3128979056956 13.830357380095052 2 55.207765843067378 1.5999999999999999 2 72.594162318658022 8.0267321320013512 2 81.712864289806063 5.6460084007286664 2 88.157727614786978 6.1560309518877592 2 94.882055856463126 10.298889235756064 2 36.405750196287329 8.7861431083695773 2 53.019612971338546 7.2031135138668692 2 69.937696316646651 6.6257275108251497 2 83.180309969551999 13.613119944454015 2 87.569333035968953 4.5425011304925 2 89.441193187751409 14.59294146825407 2 41.557265736167111 4.1297745960655696 2 56.807978932600378 9.6161426380326365 2 70.413959131768578 12.440685803618347 2 74.074058027305014 4.764777318773505 2 86.056935758935353 17.757063686013552 2 98.4 1.8379654347438112 2 36.748999502199091 6.9426345802090346 2 57.111995795149745 18.568626593945019 2 63.55921127440093 14.705830004987483 2 77.144719421440456 17.750714130979638 2 93.411324732300187 21.550506875157694 2 91.455930123925469 6.6220572738552761 2 40.264739065343953 11.402393671933773 2 54.26776166111204 13.391965939626926 2 70.036766410029998 3.4322395926895375 2 78.8048762450792 8.0922635057959624 2 85.71491610273182 7.0568817291855304 2 98.4 9.8055370672900093 2 39.619998714800609 16.546399591379856 2 51.22495878407635 5.1967845358492406 2 68.522454981607495 9.5229418499362417 2 80.166110439108181 13.913083405417497 2 89.016856883870631 4.9265669420330491 2 95.244118145259975 13.290541708407371 2 38.186182735011649 4.6434933673852683 2 58.812066418411725 5.4512976518844072 2 73.80017030901115 16.336868639308779 2 75.835272955500244 4.7237870072126036 2 82.914248221708093 6.4025921695184014 2 95.795782316545854 7.9564592928354552 2 </DataArray>
</Points>
<Cells>
<DataArray Name="connectivity" format="ascii" type="Int32">0</DataArray>
<DataArray Name="offsets" format="ascii" type="Int32">0</DataArray>
<DataArray Name="types" format="ascii" type="UInt8">1</DataArray>
</Cells>
<PointData>