<?xml version="1.0" ?>
<VTKFile byte_order="LittleEndian" type="UnstructuredGrid" version="0.1">
<UnstructuredGrid>
<Piece NumberOfCells="0" NumberOfPoints="12">
<Points>
<DataArray NumberOfComponents="3" format="ascii" type="Float32">0 0 0 32.812293272838168 5.8838040904906466 2 43.491103421396431 4.2030013160275317 2 82.248343246481213 1 2 30.724425897752454 6.9455740503236063 2 40.659984971491454 4.3109833271946085 2 81.618877662917569 6.2262741649472995 2 33.527035178160681 2.9081654474325651 2 39.614360530941255 8.4308438625270661 2 42.044573777069701 1.5999999999999999 2 31.687470585628898 1.2 2 82.197258471990111 3.9342018968117358 2 </DataArray>
</Points>
<Cells>
<DataArray Name="connectivity" format="ascii" type="Int32">0</DataArray>
<DataArray Name="offsets" format="ascii" type="Int32">0</DataArray>
<DataArray Name="types" format="ascii" type="UInt8">1</DataArray>
</Cells>
<PointData>
<DataArray Name="Points" NumberOfComponents="3" format="ascii" type="Float32">0 0 0 32.812293272838168 5.8838040904906466 2 43.491103421396431 4.2030013160275317 2 82.248343246481213 1 2 30.724425897752454 6.9455740503236063 2 40.659984971491454 4.3109833271946085 2 81.618877662917569 6.2262741649472995 2 33.527035178160681 2.9081654474325651 2 39.614360530941255 8.4308438625270661 2 42.044573777069701 1.5999999999999999 2 31.687470585628898 1.2 2 82.197258471990111 3.9342018968117358 2 </DataArray>
<DataArray Name="forces" NumberOfComponents="3" format="ascii" type="Float32">0 0 0 0.0010563349199290972 0.061319952628070898 0.0 0.018627048317506639 -0.0022040493204358181 0.0 0.024510796654095113 -0.29793218567094831 0.0 -0.023525549699597224 0.027433242443998168 0.0 0.0069822895502143038 0.0027505604509522816 0.0 0.02545666727918915 0.037445105933201987 0.0 0.019506627547700384 0.060948368755883497 0.0 0.033110772237036644 0.085473508793298569 0.0 0.019028104756888098 -0.15969023353578701 0.0 0.054105557058407472 -0.24201230725277509 0.0 0.018001315825352235 0.041273858642116405 0.0 </DataArray>
<DataArray Name="radii" format="ascii" type="Float32">0 1.2 1.4 1 1.2 1.5999999999999999 1 1.5999999999999999 1.4 1.5999999999999999 1.2 1.4 </DataArray>
</PointData>
<CellData/>
</Piece>
</UnstructuredGrid>
</VTKFile>
