<?xml version="1.0" ?>
<VTKFile byte_order="LittleEndian" type="UnstructuredGrid" version="0.1">
<UnstructuredGrid>
<Piece NumberOfCells="0" NumberOfPoints="35">
<Points>
<DataArray NumberOfComponents="3" format="ascii" type="Float32">0 0 0 7.0926385818041204 1.44055078897 2 16.276578949127586 1.6648165959046106 2 27.341258133292804 3.0176222419779632 2 32.62037587015913 1.44055078897 2 37.301619781397058 3.6836923497777168 2 41.59230713268105 1.44055078897 2 46.267054978560203 4.1349064643555389 2 52.774310571936006 1.44055078897 2 55.626651753798541 1.44055078897 2 63.366803878875743 3.488365581169143 2 70.575847538124677 1.44055078897 2 74.244163112875569 5.637086079253014 2 75.687456541122842 3.1794381096587379 2 79.434071285530891 4.0001692591823783 2 87.723159340431437 1.44055078897 2 92.117844415435826 4.0802387293154698 2 95.895737807937479 1.44055078897 2 4.2152131620904925 1.575128833226898 2 13.405021590144919 1.44055078897 2 24.935735708207169 1.44055078897 2 34.058921662627476 3.9303540355438362 2 35.500430499950198 1.44055078897 2 44.428465220865867 1.8335911577569015 2 47.259203779655557 1.44055078897 2 54.152906786979983 3.9615945844290077 2 57.033744951085147 3.9436069605278594 2 61.354628370063999 1.44055078897 2 71.875216139708101 4.0021163891967726 2 73.429440909522143 1.44055078897 2 77.913537641271176 1.44055078897 2 80.745562766350631 1.44055078897 2 85.527054756850745 3.200588286588272 2 93.214761098227157 1.44055078897 2 95.667616773168021 4.3024720463399397 2 </DataArray>
</Points>
<Cells>
<DataArray Name="connectivity" format="ascii" type="Int32">0</DataArray>
<DataArray Name="offsets" format="ascii" type="Int32">0</DataArray>
<DataArray Name="types" format="ascii" type="UInt8">1</DataArray>
</Cells>
<PointData>
<DataArray Name="Points" NumberOfComponents="3" format="ascii" type="Float32">0 0 0 7.0926385818041204 1.44055078897 2 16.276578949127586 1.6648165959046106 2 27.341258133292804 3.0176222419779632 2 32.62037587015913 1.44055078897 2 37.301619781397058 3.6836923497777168 2 41.59230713268105 1.44055078897 2 46.267054978560203 4.1349064643555389 2 52.774310571936006 1.44055078897 2 55.626651753798541 1.44055078897 2 63.366803878875743 3.488365581169143 2 70.575847538124677 1.44055078897 2 74.244163112875569 5.637086079253014 2 75.687456541122842 3.1794381096587379 2 79.434071285530891 4.0001692591823783 2 87.723159340431437 1.44055078897 2 92.117844415435826 4.0802387293154698 2 95.895737807937479 1.44055078897 2 4.2152131620904925 1.575128833226898 2 13.405021590144919 1.44055078897 2 24.935735708207169 1.44055078897 2 34.058921662627476 3.9303540355438362 2 35.500430499950198 1.44055078897 2 44.428465220865867 1.8335911577569015 2 47.259203779655557 1.44055078897 2 54.152906786979983 3.9615945844290077 2 57.033744951085147 3.9436069605278594 2 61.354628370063999 1.44055078897 2 71.875216139708101 4.0021163891967726 2 73.429440909522143 1.44055078897 2 77.913537641271176 1.44055078897 2 80.745562766350631 1.44055078897 2 85.527054756850745 3.200588286588272 2 93.214761098227157 1.44055078897 2 95.667616773168021 4.3024720463399397 2 </DataArray>
<DataArray Name="forces" NumberOfComponents="3" format="ascii" type="Float32">0 0 0 0.00055868033977230977 -2.6853952089807488e-05 0.0 -0.00010060364369024509 0.00017359998211556246 0.0 -0.0027552114558359458 0.0071711488565411215 0.0 -7.506051707804667e-05 -0.0050995689360148529 0.0 -0.0022189184135511662 0.011405878701211687 0.0 -0.0063071966774082781 -0.0021046714949040242 0.0 -0.0035501734229798423 0.0096361457911372898 0.0 -5.0876329938216551e-05 -0.0058223840465006452 0.0 0.0026018315407057317 -0.0087437142812767984 0.0 -0.0025028921642592308 0.019949378889164544 0.0 -0.0029135279792811032 -0.0069881928033166093 0.0 -0.014809416631670042 0.030715453985938054 0.0 -0.0046045221997477667 0.029389423225930193 0.0 -0.0024458905507596879 0.0047908607870329033 0.0 -0.061362664916582578 -0.044038986924168473 0.0 -0.0044677730609793392 0.021211365818143632 0.0 -0.01649113175244438 -0.010355200263823949 0.0 9.7912045170575309e-05 8.0895072780355802e-05 0.0 -0.00083390303123626985 -6.6203018604940047e-05 0.0 -0.0040825828299139539 -0.0026781773733326451 0.0 0.0008927290385196099 0.0086447893107530118 0.0 0.00047331502965502472 -0.0071156301406259011 0.0 -0.0055295367872057639 0.005736808807410369 0.0 -0.0042622234950864431 -0.011868188628504446 0.0 0.0034252091808491584 0.0069313546502567476 0.0 0.003776842320868023 0.0087461887813828493 0.0 0.0068097362280363288 -0.0091018408024890786 0.0 0.001790610569553922 0.0064671913956838916 0.0 0.0031477450969515028 -0.020693635504965665 0.0 -0.0056600688670117097 -0.03786081379838277 0.0 0.0063035702751197339 -0.0031196253797717384 0.0 -0.024138660937503637 0.072512345783820431 0.0 -0.032809979322870164 -0.021148577269851466 0.0 -0.00085083814582403517 0.010355200263823949 0.0 </DataArray>
<DataArray Name="radii" format="ascii" type="Float32">0 1.44055078897 1.44055078897 1.44055078897 1.44055078897 1.44055078897 1.44055078897 1.44055078897 1.44055078897 1.44055078897 1.44055078897 1.44055078897 1.44055078897 1.44055078897 1.44055078897 1.44055078897 1.44055078897 1.44055078897 1.44055078897 1.44055078897 1.44055078897 1.44055078897 1.44055078897 1.44055078897 1.44055078897 1.44055078897 1.44055078897 1.44055078897 1.44055078897 1.44055078897 1.44055078897 1.44055078897 1.44055078897 1.44055078897 1.44055078897 </DataArray>
</PointData>
<CellData/>
</Piece>
</UnstructuredGrid>
</VTKFile>
