<?xml version="1.0" ?>
<VTKFile byte_order="LittleEndian" type="UnstructuredGrid" version="0.1">
<UnstructuredGrid>
<Piece NumberOfCells="0" NumberOfPoints="14">
<Points>
<DataArray NumberOfComponents="3" format="ascii" type="Float32">31.53773046417222 5.7540556330848238 2 59.642463664050339 3.5757501813484693 2 88.076526596997454 5.8165876113774129 2 97.345809361339917 3.4360575751373577 2 28.993604039107332 1.268365918906393 2 60.25950039289728 6.1452062389749385 2 90.826581409243772 1.268365918906393 2 97.887513788671598 7.8420881710272834 2 28.746211662983633 5.496158784276937 2 58.243550667277589 1.268365918906393 2 98.7316340810936 1.268365918906393 2 30.327166967928921 3.527934478236713 2 89.939154014911566 4.1225798556367508 2 98.7316340810936 5.4821955574654764 2 </DataArray>
</Points>
<Cells>
<DataArray Name="connectivity" format="ascii" type="Int32">0</DataArray>
<DataArray Name="offsets" format="ascii" type="Int32">0</DataArray>
<DataArray Name="types" format="ascii" type="UInt8">1</DataArray>
</Cells>
<PointData>
<DataArray Name="Points" NumberOfComponents="3" format="ascii" type="Float32">31.53773046417222 5.7540556330848238 2 59.642463664050339 3.5757501813484693 2 88.076526596997454 5.8165876113774129 2 97.345809361339917 3.4360575751373577 2 28.993604039107332 1.268365918906393 2 60.25950039289728 6.1452062389749385 2 90.826581409243772 1.268365918906393 2 97.887513788671598 7.8420881710272834 2 28.746211662983633 5.496158784276937 2 58.243550667277589 1.268365918906393 2 98.7316340810936 1.268365918906393 2 30.327166967928921 3.527934478236713 2 89.939154014911566 4.1225798556367508 2 98.7316340810936 5.4821955574654764 2 </DataArray>
<DataArray Name="forces" NumberOfComponents="3" format="ascii" type="Float32">-0.0017222095323706286 0.010772927157903905 0.0 0.0 0.0 0.0 -0.010558364827925862 0.015029462066205685 0.0 0.00823093335797042 0.0084987865046966884 0.0 -0.011616536426016302 -0.01617423287002755 0.0 -0.012621792025227663 0.014947536965857482 0.0 0.023683396146257814 -0.075143963563351984 0.0 -0.010583103658021471 0.029840234709977983 0.0 -0.0058420857487102053 0.01425135245165295 0.0 -0.066532506983051576 0.0 0.0 0.014670698243511637 0.0 0.0 -0.0048117168474424224 0.0087139734768912989 0.0 -0.0010289186031186559 0.028864376685240882 0.0 0.055544992032399647 0.031540945822223408 0.0 </DataArray>
<DataArray Name="radii" format="ascii" type="Float32">1.268365918906393 1.268365918906393 1.268365918906393 1.268365918906393 1.268365918906393 1.268365918906393 1.268365918906393 1.268365918906393 1.268365918906393 1.268365918906393 1.268365918906393 1.268365918906393 1.268365918906393 1.268365918906393 </DataArray>
</PointData>
<CellData/>
</Piece>
</UnstructuredGrid>
</VTKFile>
