<?xml version="1.0" ?>
<VTKFile byte_order="LittleEndian" type="UnstructuredGrid" version="0.1">
<UnstructuredGrid>
<Piece NumberOfCells="0" NumberOfPoints="256">
<Points>
<DataArray NumberOfComponents="3" format="ascii" type="Float32">1.2 6.0232197022583502 2 10.112228022068265 8.5098960802056407 2 17.78067004047805 6.0452656219813301 2 27.881334844806748 14.104631673384427 2 8.6972312856958265 6.1301036675742795 2 13.218192958523563 12.484136262225954 2 15.634266170591063 14.404305451010574 2 23.781940973325341 8.1920868413099583 2 1.2 13.828480298121969 2 13.816655251641771 17.721733807901327 2 22.860445114001049 14.181865563817407 2 23.869372403777863 3.2563939795914276 2 4.3745150445199128 5.2641188593783692 2 10.870773740623388 11.65536529301097 2 17.86065825417106 9.3408612177094792 2 26.173276564489651 13.619687839019447 2 3.94034755456879 1.2 2 13.510834829514822 1.2 2 20.693675084981166 3.2859611133499831 2 27.33387759370758 9.7122259167916525 2 8.9060879124771652 12.980389854840972 2 11.00240194982489 16.495689793600004 2 18.99206111284801 9.863123762654741 2 23.001410531142206 1.2 2 4.3620430474424694 14.781291277349929 2 15.153178241293983 6.6525348390765888 2 20.226548415267658 16.403913711793379 2 27.777159089551944 4.8491041543439364 2 6.5004220948057823 2.3508152242801663 2 11.324580274305005 1.2 2 18.321046120363437 1.2 2 23.12795171738588 18.908940455615724 2 1.2 10.015952380360538 2 9.1877156614373661 3.68862376956046 2 19.882787452501905 2.5831679931612506 2 30.107823291974377 20.428156184955348 2 5.6280963702353883 8.7216200729360214 2 14.017044302796911 8.3951199896367097 2 18.551828023550549 11.673263518744067 2 23.851259156251182 9.5342228331850283 2 3.7797165856558101 13.289436007552865 2 15.400912318562733 18.607338444801499 2 21.579640730465641 11.984056070147982 2 25.03468146456704 3.553788902571263 2 4.5192405963326499 7.3200745767484108 2 8.5273171330171031 8.7986742366927135 2 16.123451275648584 7.4159815193784926 2 25.299876246339061 11.191799758633746 2 2.4504146622644103 3.6007117732945835 2 11.582857925409801 5.6925784209064414 2 20.876693273073201 8.0302356176620382 2 26.901657298285233 7.8417060313789166 2 3.8121165390214671 18.693973846566383 2 7.5034168848858442 20.03626615600443 2 18.846145504623856 15.155136783278666 2 22.485591014387001 5.4008596381889138 2 2.7251234223230263 15.093515812289313 2 14.920951162810121 9.9645252311726455 2 21.400902329624749 20.061937719176413 2 26.588028336577096 1.2 2 6.1568222614430335 3.4538074689232539 2 7.6173757279277732 3.5281027949820118 2 14.673095466413969 1.2 2 26.071702956732402 19.185326676234425 2 2.4939814359803223 5.4143274049409031 2 8.9401640087252048 10.204047841265847 2 17.720009950560524 3.4851230382447991 2 30.276694575721329 15.197774597599647 2 5.9922276322832673 4.6168962199554064 2 11.47208630708379 10.263002345019515 2 15.640752531590348 11.768377151343808 2 26.02156127497301 6.1531013199463231 2 1.2 11.777860943494529 2 13.749082819015099 14.027136740404208 2 24.580296017877409 13.860388243734594 2 25.341666218471314 1.2 2 3.3835052624853241 4.3271204816858448 2 10.445935341935735 13.456391530213359 2 19.320256791355824 6.5934814702536393 2 26.442072913132431 15.173995843556352 2 2.5845756419235926 1.2 2 12.98543330014305 2.7321047677338943 2 19.090657237240467 3.8875089217937671 2 28.48295054032161 11.252801817864551 2 7.0837837908043824 14.205242081486547 2 11.738562721237647 18.46071713533631 2 18.323094381360086 13.321651292033472 2 21.901598691417355 4.0702765775012031 2 5.3019553148810683 12.350609093485193 2 15.975199684161161 3.5275772945210857 2 20.605622395964119 14.62193466026061 2 28.253453862065125 3.6190991351430069 2 7.8655327972652334 1.2 2 10.535613309108953 4.0954292477208982 2 17.059629816171039 1.2 2 21.09416315373052 18.000114122092146 2 1.2 7.0805247159790019 2 9.9442764858071104 6.4226882434678565 2 20.684480898616425 1.2 2 27.899976344121438 20.088078786391531 2 7.031162336794992 8.7443196312339158 2 12.329112231053752 7.8929447442911842 2 16.308407632790253 10.495895810764253 2 22.290123607888066 7.9147346669917367 2 3.9624405215003162 11.627499767201911 2 15.00175839534054 20.740178615158612 2 23.280944219648109 12.428405006762658 2 24.29918203521299 5.1502003138364874 2 2.530543635577339 8.5287749631787069 2 7.903388546671775 11.127574269450172 2 16.497319586969549 5.60801510009086 2 25.230749822920721 8.1372771495988285 2 1.2 1.2 2 13.388796979098698 6.0965691738419796 2 21.962959375704255 10.717199438503178 2 28.904136345276065 7.1728126896008018 2 5.9623813537602528 18.047598409209364 2 9.1831499726614432 16.343856342928206 2 16.835006566457277 12.684609727082769 2 21.393670362981812 5.869535113978837 2 1.2 18.351998208239898 2 14.111505893415105 11.045856983119979 2 19.193229939902302 19.226178287555019 2 27.852630648185524 1.2 2 5.5203869085522284 5.7821086827893264 2 9.0244860114131029 1.2 2 14.92533278903541 4.3842930032243421 2 26.559729071713367 17.131519025989682 2 1.2 4.7679640992543062 2 10.538700356725148 7.5326763184039986 2 17.350062156191086 7.3038131370485697 2 27.989242136561273 15.79217355596078 2 7.1520553885155023 6.2009922969380025 2 11.826605918901253 12.925728200737753 2 15.657321806277423 16.457674636647116 2 23.892994146041698 6.4092008302818932 2 1.2 15.905006226412192 2 12.61037886058479 16.432847868458492 2 23.769594502891952 15.567814070805255 2 24.109671109658894 1.2 2 4.7075756561186246 3.8562948323548496 2 9.5484671403568608 11.689809462483815 2 18.532936438679499 7.7779789217963717 2 26.714850125333456 12.358185511586198 2 5.2079042836520273 1.2 2 12.401373893598699 1.2 2 20.591468076463286 4.6541065352139528 2 26.856568602111352 10.962698295724262 2 7.3596832534282646 12.513312897831359 2 12.244457645158171 14.627997192450895 2 20.934136737101177 9.4333753289115183 2 22.904012893487266 2.6067112509949144 2 5.7177935203112531 13.710271096505991 2 15.075511136990222 5.5004282839159249 2 18.918441381067705 17.329360512269258 2 27.058022410750393 6.6166388338279756 2 6.6178411065177905 1.2 2 10.943713837968613 2.6098577407365662 2 17.063647954396746 2.4166608480226057 2 24.740619166447058 17.658039315302691 2 2.5988507846481728 9.9337445922962591 2 8.639967308684902 4.7593361373565859 2 19.547316444431935 1.2 2 29.687547775125548 18.338295376761963 2 5.3777058825679989 10.136563215153371 2 13.831313236994255 7.215469568968512 2 20.142482681800686 10.487587124474445 2 23.462363468577607 11.005553017428818 2 2.4166134470783591 13.154118607379749 2 17.203385795945486 18.025947580418471 2 20.053288261087182 11.896961523547265 2 26.692630200716426 4.6203520341813356 2 2.9882807235937663 7.3611173709877544 2 8.6346484996362065 7.5003646560132404 2 16.759201163250246 8.981635374488679 2 25.127722288980987 9.9758469270695826 2 1.2 3.5557769451691819 2 11.882625409300339 6.7725932914777269 2 19.555087430305541 8.4303797096030948 2 28.107304644979713 8.2621939711981884 2 4.6977323050231892 20.581067264973495 2 7.9751930275287473 18.038712152455467 2 17.352573543489065 16.067518798006841 2 23.216084116059552 4.4081649972083765 2 4.3420898049724297 16.672455869181686 2 15.400042405766929 8.5985830755852071 2 19.604815351004113 21.333969643269047 2 26.564075792294673 2.3782044573156234 2 5.0205024394032591 2.4360650751941395 2 9.6624442845967469 2.6108606918500823 2 14.186816568840301 2.6046681210506999 2 24.453324570452899 20.487085918600553 2 3.3994056387662113 6.2851718733383999 2 10.202169671513806 9.8417206361939904 2 18.58893303563055 2.5410159450989513 2 29.200599798612476 16.395960117665336 2 7.3245382697996595 4.9705350828755259 2 11.872787207906397 8.9512313660956799 2 14.915920261747436 12.86935973730268 2 25.005498632975574 7.003568694049803 2 2.5028034020177219 11.46899459180208 2 14.171637333733795 15.616719641028983 2 24.821213098395777 12.338755016038142 2 24.832096143751237 2.3196965042628244 2 3.9337608670874959 2.8565484327800821 2 10.426343057770996 14.840872660797318 2 19.622684620987719 5.3139335901504063 2 25.155915021122887 15.724236031267157 2 2.8286839890470241 2.2931701254381478 2 11.952295128170093 3.17349788916122 2 18.340994531327077 4.9320000508877069 2 28.302246617076921 12.609429001187312 2 8.5945399707267711 14.546153361206388 2 9.8596555044762244 18.367772265974363 2 19.813320085920104 13.368496737114265 2 21.744923269482889 2.6658661358404663 2 6.0755198779034822 11.302090159229611 2 15.49159892087355 2.5436641680778975 2 21.823605214005241 15.744339655570412 2 26.343591507513775 3.4123263799120602 2 8.1570598955293558 2.5186263676074891 2 11.989767934366085 4.4927368251201303 2 15.8425337170723 1.2 2 22.897856115289827 17.042176982550185 2 1.2 8.3687458584655801 2 10.225202482491415 5.2335497559963127 2 21.7715386258899 1.2 2 28.494385796082415 22.12978259591662 2 7.0866551580273196 7.3746949702135298 2 13.311372806632093 9.5250804338630317 2 17.582688708550311 11.057939617290909 2 22.712817575693013 6.7833202618114665 2 4.0452699182530827 10.146619363021685 2 13.122514137193329 19.820818906164405 2 21.673298502120652 13.405225218670974 2 25.435929736682063 4.9604800743678767 2 4.1209345594950531 8.6516311311068517 2 7.0904096125152476 10.048143893192517 2 16.852349220582266 4.4431210692272742 2 26.111808334058939 9.0549256526293718 2 1.2 2.3312130519532435 2 13.82117166164501 3.8730599274721915 2 22.416077201159215 9.3738066846972412 2 28.259578710064535 5.9891745580059466 2 5.8873321229760665 15.797531261664485 2 7.3888851758850667 16.213548112740042 2 17.039874089003114 14.43670646088634 2 20.647542176617623 6.8004501290980848 2 2.5895447261140343 17.077332813402993 2 12.606060052081149 11.046161320121842 2 17.140615019487317 20.158514993485383 2 27.952245789639584 2.6330781536848185 2 5.6487028027625152 7.067147238718535 2 10.145514777240781 1.2 2 13.239362424708759 4.9695573086886178 2 27.970530356415537 18.058016327399208 2 </DataArray>
</Points>
<Cells>
<DataArray Name="connectivity" format="ascii" type="Int32">0</DataArray>
<DataArray Name="offsets" format="ascii" type="Int32">0</DataArray>
<DataArray Name="types" format="ascii" type="UInt8">1</DataArray>
</Cells>
<PointData>
<DataArray Name="Points" NumberOfComponents="3" format="ascii" type="Float32">1.2 6.0232197022583502 2 10.112228022068265 8.5098960802056407 2 17.78067004047805 6.0452656219813301 2 27.881334844806748 14.104631673384427 2 8.6972312856958265 6.1301036675742795 2 13.218192958523563 12.484136262225954 2 15.634266170591063 14.404305451010574 2 23.781940973325341 8.1920868413099583 2 1.2 13.828480298121969 2 13.816655251641771 17.721733807901327 2 22.860445114001049 14.181865563817407 2 23.869372403777863 3.2563939795914276 2 4.3745150445199128 5.2641188593783692 2 10.870773740623388 11.65536529301097 2 17.86065825417106 9.3408612177094792 2 26.173276564489651 13.619687839019447 2 3.94034755456879 1.2 2 13.510834829514822 1.2 2 20.693675084981166 3.2859611133499831 2 27.33387759370758 9.7122259167916525 2 8.9060879124771652 12.980389854840972 2 11.00240194982489 16.495689793600004 2 18.99206111284801 9.863123762654741 2 23.001410531142206 1.2 2 4.3620430474424694 14.781291277349929 2 15.153178241293983 6.6525348390765888 2 20.226548415267658 16.403913711793379 2 27.777159089551944 4.8491041543439364 2 6.5004220948057823 2.3508152242801663 2 11.324580274305005 1.2 2 18.321046120363437 1.2 2 23.12795171738588 18.908940455615724 2 1.2 10.015952380360538 2 9.1877156614373661 3.68862376956046 2 19.882787452501905 2.5831679931612506 2 30.107823291974377 20.428156184955348 2 5.6280963702353883 8.7216200729360214 2 14.017044302796911 8.3951199896367097 2 18.551828023550549 11.673263518744067 2 23.851259156251182 9.5342228331850283 2 3.7797165856558101 13.289436007552865 2 15.400912318562733 18.607338444801499 2 21.579640730465641 11.984056070147982 2 25.03468146456704 3.553788902571263 2 4.5192405963326499 7.3200745767484108 2 8.5273171330171031 8.7986742366927135 2 16.123451275648584 7.4159815193784926 2 25.299876246339061 11.191799758633746 2 2.4504146622644103 3.6007117732945835 2 11.582857925409801 5.6925784209064414 2 20.876693273073201 8.0302356176620382 2 26.901657298285233 7.8417060313789166 2 3.8121165390214671 18.693973846566383 2 7.5034168848858442 20.03626615600443 2 18.846145504623856 15.155136783278666 2 22.485591014387001 5.4008596381889138 2 2.7251234223230263 15.093515812289313 2 14.920951162810121 9.9645252311726455 2 21.400902329624749 20.061937719176413 2 26.588028336577096 1.2 2 6.1568222614430335 3.4538074689232539 2 7.6173757279277732 3.5281027949820118 2 14.673095466413969 1.2 2 26.071702956732402 19.185326676234425 2 2.4939814359803223 5.4143274049409031 2 8.9401640087252048 10.204047841265847 2 17.720009950560524 3.4851230382447991 2 30.276694575721329 15.197774597599647 2 5.9922276322832673 4.6168962199554064 2 11.47208630708379 10.263002345019515 2 15.640752531590348 11.768377151343808 2 26.02156127497301 6.1531013199463231 2 1.2 11.777860943494529 2 13.749082819015099 14.027136740404208 2 24.580296017877409 13.860388243734594 2 25.341666218471314 1.2 2 3.3835052624853241 4.3271204816858448 2 10.445935341935735 13.456391530213359 2 19.320256791355824 6.5934814702536393 2 26.442072913132431 15.173995843556352 2 2.5845756419235926 1.2 2 12.98543330014305 2.7321047677338943 2 19.090657237240467 3.8875089217937671 2 28.48295054032161 11.252801817864551 2 7.0837837908043824 14.205242081486547 2 11.738562721237647 18.46071713533631 2 18.323094381360086 13.321651292033472 2 21.901598691417355 4.0702765775012031 2 5.3019553148810683 12.350609093485193 2 15.975199684161161 3.5275772945210857 2 20.605622395964119 14.62193466026061 2 28.253453862065125 3.6190991351430069 2 7.8655327972652334 1.2 2 10.535613309108953 4.0954292477208982 2 17.059629816171039 1.2 2 21.09416315373052 18.000114122092146 2 1.2 7.0805247159790019 2 9.9442764858071104 6.4226882434678565 2 20.684480898616425 1.2 2 27.899976344121438 20.088078786391531 2 7.031162336794992 8.7443196312339158 2 12.329112231053752 7.8929447442911842 2 16.308407632790253 10.495895810764253 2 22.290123607888066 7.9147346669917367 2 3.9624405215003162 11.627499767201911 2 15.00175839534054 20.740178615158612 2 23.280944219648109 12.428405006762658 2 24.29918203521299 5.1502003138364874 2 2.530543635577339 8.5287749631787069 2 7.903388546671775 11.127574269450172 2 16.497319586969549 5.60801510009086 2 25.230749822920721 8.1372771495988285 2 1.2 1.2 2 13.388796979098698 6.0965691738419796 2 21.962959375704255 10.717199438503178 2 28.904136345276065 7.1728126896008018 2 5.9623813537602528 18.047598409209364 2 9.1831499726614432 16.343856342928206 2 16.835006566457277 12.684609727082769 2 21.393670362981812 5.869535113978837 2 1.2 18.351998208239898 2 14.111505893415105 11.045856983119979 2 19.193229939902302 19.226178287555019 2 27.852630648185524 1.2 2 5.5203869085522284 5.7821086827893264 2 9.0244860114131029 1.2 2 14.92533278903541 4.3842930032243421 2 26.559729071713367 17.131519025989682 2 1.2 4.7679640992543062 2 10.538700356725148 7.5326763184039986 2 17.350062156191086 7.3038131370485697 2 27.989242136561273 15.79217355596078 2 7.1520553885155023 6.2009922969380025 2 11.826605918901253 12.925728200737753 2 15.657321806277423 16.457674636647116 2 23.892994146041698 6.4092008302818932 2 1.2 15.905006226412192 2 12.61037886058479 16.432847868458492 2 23.769594502891952 15.567814070805255 2 24.109671109658894 1.2 2 4.7075756561186246 3.8562948323548496 2 9.5484671403568608 11.689809462483815 2 18.532936438679499 7.7779789217963717 2 26.714850125333456 12.358185511586198 2 5.2079042836520273 1.2 2 12.401373893598699 1.2 2 20.591468076463286 4.6541065352139528 2 26.856568602111352 10.962698295724262 2 7.3596832534282646 12.513312897831359 2 12.244457645158171 14.627997192450895 2 20.934136737101177 9.4333753289115183 2 22.904012893487266 2.6067112509949144 2 5.7177935203112531 13.710271096505991 2 15.075511136990222 5.5004282839159249 2 18.918441381067705 17.329360512269258 2 27.058022410750393 6.6166388338279756 2 6.6178411065177905 1.2 2 10.943713837968613 2.6098577407365662 2 17.063647954396746 2.4166608480226057 2 24.740619166447058 17.658039315302691 2 2.5988507846481728 9.9337445922962591 2 8.639967308684902 4.7593361373565859 2 19.547316444431935 1.2 2 29.687547775125548 18.338295376761963 2 5.3777058825679989 10.136563215153371 2 13.831313236994255 7.215469568968512 2 20.142482681800686 10.487587124474445 2 23.462363468577607 11.005553017428818 2 2.4166134470783591 13.154118607379749 2 17.203385795945486 18.025947580418471 2 20.053288261087182 11.896961523547265 2 26.692630200716426 4.6203520341813356 2 2.9882807235937663 7.3611173709877544 2 8.6346484996362065 7.5003646560132404 2 16.759201163250246 8.981635374488679 2 25.127722288980987 9.9758469270695826 2 1.2 3.5557769451691819 2 11.882625409300339 6.7725932914777269 2 19.555087430305541 8.4303797096030948 2 28.107304644979713 8.2621939711981884 2 4.6977323050231892 20.581067264973495 2 7.9751930275287473 18.038712152455467 2 17.352573543489065 16.067518798006841 2 23.216084116059552 4.4081649972083765 2 4.3420898049724297 16.672455869181686 2 15.400042405766929 8.5985830755852071 2 19.604815351004113 21.333969643269047 2 26.564075792294673 2.3782044573156234 2 5.0205024394032591 2.4360650751941395 2 9.6624442845967469 2.6108606918500823 2 14.186816568840301 2.6046681210506999 2 24.453324570452899 20.487085918600553 2 3.3994056387662113 6.2851718733383999 2 10.202169671513806 9.8417206361939904 2 18.58893303563055 2.5410159450989513 2 29.200599798612476 16.395960117665336 2 7.3245382697996595 4.9705350828755259 2 11.872787207906397 8.9512313660956799 2 14.915920261747436 12.86935973730268 2 25.005498632975574 7.003568694049803 2 2.5028034020177219 11.46899459180208 2 14.171637333733795 15.616719641028983 2 24.821213098395777 12.338755016038142 2 24.832096143751237 2.3196965042628244 2 3.9337608670874959 2.8565484327800821 2 10.426343057770996 14.840872660797318 2 19.622684620987719 5.3139335901504063 2 25.155915021122887 15.724236031267157 2 2.8286839890470241 2.2931701254381478 2 11.952295128170093 3.17349788916122 2 18.340994531327077 4.9320000508877069 2 28.302246617076921 12.609429001187312 2 8.5945399707267711 14.546153361206388 2 9.8596555044762244 18.367772265974363 2 19.813320085920104 13.368496737114265 2 21.744923269482889 2.6658661358404663 2 6.0755198779034822 11.302090159229611 2 15.49159892087355 2.5436641680778975 2 21.823605214005241 15.744339655570412 2 26.343591507513775 3.4123263799120602 2 8.1570598955293558 2.5186263676074891 2 11.989767934366085 4.4927368251201303 2 15.8425337170723 1.2 2 22.897856115289827 17.042176982550185 2 1.2 8.3687458584655801 2 10.225202482491415 5.2335497559963127 2 21.7715386258899 1.2 2 28.494385796082415 22.12978259591662 2 7.0866551580273196 7.3746949702135298 2 13.311372806632093 9.5250804338630317 2 17.582688708550311 11.057939617290909 2 22.712817575693013 6.7833202618114665 2 4.0452699182530827 10.146619363021685 2 13.122514137193329 19.820818906164405 2 21.673298502120652 13.405225218670974 2 25.435929736682063 4.9604800743678767 2 4.1209345594950531 8.6516311311068517 2 7.0904096125152476 10.048143893192517 2 16.852349220582266 4.4431210692272742 2 26.111808334058939 9.0549256526293718 2 1.2 2.3312130519532435 2 13.82117166164501 3.8730599274721915 2 22.416077201159215 9.3738066846972412 2 28.259578710064535 5.9891745580059466 2 5.8873321229760665 15.797531261664485 2 7.3888851758850667 16.213548112740042 2 17.039874089003114 14.43670646088634 2 20.647542176617623 6.8004501290980848 2 2.5895447261140343 17.077332813402993 2 12.606060052081149 11.046161320121842 2 17.140615019487317 20.158514993485383 2 27.952245789639584 2.6330781536848185 2 5.6487028027625152 7.067147238718535 2 10.145514777240781 1.2 2 13.239362424708759 4.9695573086886178 2 27.970530356415537 18.058016327399208 2 </DataArray>