<?xml version="1.0" ?>
<VTKFile byte_order="LittleEndian" type="UnstructuredGrid" version="0.1">
<UnstructuredGrid>
<Piece NumberOfCells="0" NumberOfPoints="27">
<Points>
<DataArray NumberOfComponents="3" format="ascii" type="Float32">0 0 0 34.349796983063683 9.2590055188441163 2 41.322237284128533 6.5098671357410973 2 82.381832808834346 1 2 37.823031501513526 8.1477840710720528 2 80.623470092504519 11.261284888320244 2 32.26441372638088 9.0529301605910621 2 39.61753602295606 4.9126945001190716 2 81.510461068992399 9.482140047244684 2 33.418733964833606 4.0803789333650364 2 35.79808030303996 7.4924321707270058 2 38.510345704136881 10.580928242822839 2 42.427776632907928 1 2 34.171932453752262 1.2 2 40.287263147477795 1.4 2 82.295373605885317 6.1691067107203326 2 37.249932401792421 5.8472966061852958 2 78.960307143176308 12.716818632305349 2 35.082764491505202 3.0374816606629036 2 80.681818882911585 4.3831550934704104 2 31.526661340829421 13.196952223766552 2 35.137297190099922 5.3126456790622623 2 38.967771407907442 3.2426224561705772 2 39.61538790608337 12.907452694452248 2 81.397652804316209 2.534613241519732 2 31.213297634987107 10.93791162926254 2 80.900881626550458 7.5809424624606576 2 </DataArray>
</Points>
<Cells>
<DataArray Name="connectivity" format="ascii" type="Int32">0</DataArray>
<DataArray Name="offsets" format="ascii" type="Int32">0</DataArray>
<DataArray Name="types" format="ascii" type="UInt8">1</DataArray>
</Cells>
<PointData>
<DataArray Name="Points" NumberOfComponents="3" format="ascii" type="Float32">0 0 0 34.349796983063683 9.2590055188441163 2 41.322237284128533 6.5098671357410973 2 82.381832808834346 1 2 37.823031501513526 8.1477840710720528 2 80.623470092504519 11.261284888320244 2 32.26441372638088 9.0529301605910621 2 39.61753602295606 4.9126945001190716 2 81.510461068992399 9.482140047244684 2 33.418733964833606 4.0803789333650364 2 35.79808030303996 7.4924321707270058 2 38.510345704136881 10.580928242822839 2 42.427776632907928 1 2 34.171932453752262 1.2 2 40.287263147477795 1.4 2 82.295373605885317 6.1691067107203326 2 37.249932401792421 5.8472966061852958 2 78.960307143176308 12.716818632305349 2 35.082764491505202 3.0374816606629036 2 80.681818882911585 4.3831550934704104 2 31.526661340829421 13.196952223766552 2 35.137297190099922 5.3126456790622623 2 38.967771407907442 3.2426224561705772 2 39.61538790608337 12.907452694452248 2 81.397652804316209 2.534613241519732 2 31.213297634987107 10.93791162926254 2 80.900881626550458 7.5809424624606576 2 </DataArray>
<DataArray Name="forces" NumberOfComponents="3" format="ascii" type="Float32">0 0 0 0.022046181481586047 0.11357122476477088 0.0 -0.073363233313229997 0.024975546095086773 0.0 -0.024318101732426184 -0.48736651059965186 0.0 -0.022327627338602746 0.095719871044346733 0.0 0.014418207626929401 0.1261258775426389 0.0 0.036539085752869321 0.14654124057018952 0.0 -0.15117736342954241 0.029582444298395683 0.0 -0.0033184942602552114 0.1309730540388363 0.0 0.029348606243193631 0.023703680488138361 0.0 -0.0036584694250071416 0.064785590650510941 0.0 -0.013388328055950013 0.088298166970467828 0.0 0.066331444143170701 -0.71446540631734723 0.0 -0.0029115478783465765 -0.75886874987291852 0.0 0.041926821271810411 -0.35083030438464896 0.0 -0.029903896487540289 0.045095721266531164 0.0 -0.023977083458125735 0.024446568494462063 0.0 0.02765290499257253 0.12574876982621988 0.0 0.032093739350716716 0.017137340816682736 0.0 -0.07377268870246334 -0.024061621523869731 0.0 0.02947986090774438 0.11626662350844139 0.0 -0.01774007418394366 0.051801546418554799 0.0 -0.007723914123664688 -0.054048179225058966 0.0 -0.020760430441063502 0.093891307364641907 0.0 -0.0028761682275638967 0.023604159395581414 0.0 0.013319155774796726 0.11454326604111764 0.0 0.019142887071491393 0.16811877515495866 0.0 </DataArray>
<DataArray Name="radii" format="ascii" type="Float32">0 1.2 1.4 1 1.2 1.2 1.2 1 1 1 1.2 1.4 1 1.2 1.4 1.4 1 1 1.2 1.2 1.4 1.4 1 1.2 1 1 1.2 </DataArray>
</PointData>
<CellData/>
</Piece>
</UnstructuredGrid>
</VTKFile>
