<?xml version="1.0" ?>
<VTKFile byte_order="LittleEndian" type="UnstructuredGrid" version="0.1">
<UnstructuredGrid>
<Piece NumberOfCells="0" NumberOfPoints="193">
<Points>
<DataArray NumberOfComponents="3" format="ascii" type="Float32">0 0 0 30.616894600388349 13.052524618060055 2 48.660174254464145 8.4346689104496129 2 62.459392477667336 15.156684875921901 2 34.356029205064971 7.6324135027167133 2 45.725819954321786 5.4351615286633761 2 60.328244602112996 18.831630514625783 2 29.634495302227496 1.2 2 49.513780895379902 3.4875570183078737 2 66.181655519281023 4.2000494700504278 2 36.593966305799512 14.368939510309991 2 45.618974184583379 10.355794882620726 2 60.877779351785982 1.2 2 32.43153499096158 20.629149311390716 2 48.641474858305507 9.6252579394184732 2 60.913914252599575 9.2869552082907081 2 34.309228369777998 1.2 2 43.203804245490446 1.2 2 57.487923155616095 11.512908635601137 2 29.308300661875681 8.8229964740880433 2 44.491745055303696 3.5086476826447748 2 66.664007560398758 8.5659991336635155 2 32.911658654947495 11.469690842686642 2 46.940324243853738 16.34543584985235 2 65.216709975314259 1.2 2 31.565210726965557 14.51342061570044 2 50.522881089584615 9.0015099182330509 2 61.436058381314737 10.50800502677453 2 33.731313774502553 5.5689589628807949 2 45.127487339928365 8.9652901960729903 2 59.423371377894753 14.092360373921474 2 31.53701222461213 5.8931206713108404 2 49.267190438462009 6.4407723285194063 2 65.423145396439992 6.6778539006880875 2 38.219057873196213 21.031100016387342 2 43.8163352434497 15.629972369846403 2 60.588672525929937 3.0373095350496384 2 34.662185265476197 14.507599784225365 2 49.524467874713395 13.567532771541849 2 60.432451053543382 4.7445769983797055 2 31.257093297313443 2.5156777533624561 2 43.125623170504284 3.6703798630150013 2 56.460314269341161 12.831395240388114 2 33.222111993254536 7.2397364723175119 2 47.986791458915569 3.299568166367318 2 63.125284073994415 7.3834781283829454 2 35.629558714394093 11.227068346249272 2 48.732951742542205 19.507289658943275 2 63.477443234479644 5.3803161047934598 2 30.461547281976944 10.621683529798362 2 46.150916328814382 7.4056522283612596 2 61.704696531893596 17.022678185311651 2 33.452409902307082 10.163343287431985 2 46.468605253149654 3.6968264738240793 2 62.51760495812708 18.790793935661064 2 29.49678924450377 3.8154712596276505 2 49.9857993798012 1.2 2 66.59530153529272 2.6027268510581192 2 35.146741671084754 18.031181983225736 2 46.7210289460997 11.940045617395775 2 62.983389577785481 2.7634723789572266 2 34.532686647439476 20.203520455890583 2 47.462027647254132 14.206545205158129 2 63.217052474049218 10.938415894570726 2 35.582138112258583 1.2 2 44.453289561298 1.2 2 59.81407811023989 12.157847229869411 2 30.955857978570076 7.6003116452103034 2 46.592194211494572 2.5690690222581343 2 67.788402305572234 10.012748390064235 2 31.79176382417716 12.344652226645184 2 47.044871013668214 18.490220651092223 2 63.079920214140614 1.2 2 31.029373319649999 16.830690441002158 2 51.400959860512543 7.3167607315964247 2 61.3113445548153 13.431626004949079 2 32.320485666841002 4.0426060981004666 2 44.402121005982821 10.645728954379402 2 58.847281815499926 17.566559383421399 2 29.354840410549468 5.1310415409226646 2 47.003898370608766 5.3715759358456037 2 64.297873947134534 2.9421279043650257 2 38.895845562203526 17.070767146010834 2 45.267687134397988 17.946940701987572 2 58.706674983396056 1.2 2 33.265202841423545 18.381695458797026 2 48.492732599470251 15.325244267231968 2 61.238932061773454 6.2580341019559311 2 31.948674886504769 1.2 2 44.106528535152584 5.5685545003656536 2 55.150407232194127 16.384290101135896 2 31.853420733234287 9.0682060085466674 2 48.349850268327394 2.1750992865652679 2 65.370621100626366 8.0853302099723088 2 37.457092682813581 11.134303607030319 2 50.83114566734163 19.408478426980654 2 61.568222742533244 4.6122751971503941 2 29.346588666938651 14.022449369301889 2 48.044933998762353 7.4160721945646291 2 63.667863658571228 16.709450980487347 2 34.600338183397461 8.8971683580613501 2 45.183075111169856 6.6785926481815228 2 61.502487183788787 20.7422262809832 2 30.242107588738254 3.0438409923284282 2 50.879850986160633 3.3220350051902789 2 65.437973190740905 2.9554366481063732 2 35.706596325947658 15.928895450429614 2 47.077942813250289 9.5623874327924288 2 61.981518317854359 1.2 2 31.53002144049842 18.729534557238164 2 47.244554482873781 10.859204002487992 2 61.98668087930691 8.2482502394831432 2 33.10138655767868 1.2 2 42.068601858600985 1.2 2 58.373947717095454 10.514651493866673 2 28.899570442236236 10.060689037317726 2 45.181462376822267 4.3964634899483501 2 67.506596912540175 7.4371728644570991 2 34.227032055449477 12.39986622186994 2 45.745053687010639 14.76071675075522 2 66.349895132146315 1.2 2 33.174448673498532 14.779219356019944 2 49.931886145229385 7.7802794394831709 2 61.347583774529213 11.855106918216343 2 32.668147144980459 5.4608267278026261 2 44.411979799783829 7.9072532758671237 2 57.537876131157184 13.998986629308781 2 30.469780354185275 5.4231171350349285 2 48.783176975155406 5.3923076965963128 2 64.31394636671584 6.458969669369151 2 38.227546694872565 18.878620256365153 2 45.079598756672326 16.37819244171402 2 59.41010599366755 2.9028755830581559 2 32.995261900727257 13.289753131093741 2 50.030010772561013 12.003612580432735 2 59.689945202684676 5.9787822487024034 2 32.528198020587297 2.7024334355049442 2 43.70511118054538 2.4102513559455203 2 55.443053436445091 14.127683096841466 2 32.088996964171443 7.1918806912610158 2 47.828880178877426 4.4490647733619477 2 62.397794124697057 6.0747566596255176 2 35.395808291202158 13.176842153877772 2 49.322530494831085 21.595556157102273 2 64.087531733162194 4.3456593346187375 2 29.906026724878259 11.898700285541562 2 46.656084706135864 8.4993140712214643 2 60.117106440499235 16.410574723283816 2 32.995535504180651 8.8646700533185623 2 45.249684741969425 2.5149157078110016 2 64.447396147881236 18.457499495809742 2 28.997349169715068 1.8409370352483754 2 49.756372680986182 2.1793631525687602 2 67.496043479144276 1.2 2 36.904523655386065 17.362457912669974 2 46.198175875192796 13.118285634613338 2 61.587881275540092 2.7227000440449243 2 36.460625514963354 19.594278330812838 2 48.242702504122349 12.776578133784637 2 62.842180685758507 9.5499674741779028 2 36.333480473910313 2.3592177186085239 2 45.629272985727532 1.2 2 58.50883792408824 12.636106862382979 2 29.956369639844066 6.8441284777580584 2 46.857850954912287 1.2 2 66.725082398926105 11.189847968892789 2 31.690226470571606 10.595783587256088 2 48.671991729121899 17.315824534966332 2 64.170432860618874 1.2 2 32.383229930356755 16.4204404234215 2 52.316435006171709 5.8937894809490201 2 60.745755355256748 14.957464215370772 2 33.739824112085785 4.0449266336950416 2 43.365588424152627 9.8771864988532929 2 58.440708889745807 15.605524868754596 2 31.192789350443732 4.202246222889146 2 47.315964369508897 6.5277805386665264 2 65.286340078593327 4.9834013350222843 2 37.654670005648697 15.590565100940728 2 45.674821560100959 20.22121767608828 2 59.822819358222667 1.2 2 34.082803036645863 16.469310908090836 2 50.023120811036129 15.401920758524966 2 60.861194112776651 7.4977141949080766 2 30.800018426210404 1.2 2 43.497312523500455 6.6820890838271181 2 53.228502340115291 16.086455426663306 2 30.530379763102729 8.8926526272107207 2 48.189158558419273 1.2 2 63.995843796255372 8.3944319389924971 2 36.723278404738238 12.304410352803387 2 50.411228337431922 17.250081697311035 2 62.562110255323958 4.0251789479110585 2 </DataArray>
</Points>
<Cells>
<DataArray Name="connectivity" format="ascii" type="Int32">0</DataArray>
<DataArray Name="offsets" format="ascii" type="Int32">0</DataArray>
<DataArray Name="types" format="ascii" type="UInt8">1</DataArray>
</Cells>
<PointData>
<DataArray Name="Points" NumberOfComponents="3" format="ascii" type="Float32">0 0 0 30.616894600388349 13.052524618060055 2 48.660174254464145 8.4346689104496129 2 62.459392477667336 15.156684875921901 2 34.356029205064971 7.6324135027167133 2 45.725819954321786 5.4351615286633761 2 60.328244602112996 18.831630514625783 2 29.634495302227496 1.2 2 49.513780895379902 3.4875570183078737 2 66.181655519281023 4.2000494700504278 2 36.593966305799512 14.368939510309991 2 45.618974184583379 10.355794882620726 2 60.877779351785982 1.2 2 32.43153499096158 20.629149311390716 2 48.641474858305507 9.6252579394184732 2 60.913914252599575 9.2869552082907081 2 34.309228369777998 1.2 2 43.203804245490446 1.2 2 57.487923155616095 11.512908635601137 2 29.308300661875681 8.8229964740880433 2 44.491745055303696 3.5086476826447748 2 66.664007560398758 8.5659991336635155 2 32.911658654947495 11.469690842686642 2 46.940324243853738 16.34543584985235 2 65.216709975314259 1.2 2 31.565210726965557 14.51342061570044 2 50.522881089584615 9.0015099182330509 2 61.436058381314737 10.50800502677453 2 33.731313774502553 5.5689589628807949 2 45.127487339928365 8.9652901960729903 2 59.423371377894753 14.092360373921474 2 31.53701222461213 5.8931206713108404 2 49.267190438462009 6.4407723285194063 2 65.423145396439992 6.6778539006880875 2 38.219057873196213 21.031100016387342 2 43.8163352434497 15.629972369846403 2 60.588672525929937 3.0373095350496384 2 34.662185265476197 14.507599784225365 2 49.524467874713395 13.567532771541849 2 60.432451053543382 4.7445769983797055 2 31.257093297313443 2.5156777533624561 2 43.125623170504284 3.6703798630150013 2 56.460314269341161 12.831395240388114 2 33.222111993254536 7.2397364723175119 2 47.986791458915569 3.299568166367318 2 63.125284073994415 7.3834781283829454 2 35.629558714394093 11.227068346249272 2 48.732951742542205 19.507289658943275 2 63.477443234479644 5.3803161047934598 2 30.461547281976944 10.621683529798362 2 46.150916328814382 7.4056522283612596 2 61.704696531893596 17.022678185311651 2 33.452409902307082 10.163343287431985 2 46.468605253149654 3.6968264738240793 2 62.51760495812708 18.790793935661064 2 29.49678924450377 3.8154712596276505 2 49.9857993798012 1.2 2 66.59530153529272 2.6027268510581192 2 35.146741671084754 18.031181983225736 2 46.7210289460997 11.940045617395775 2 62.983389577785481 2.7634723789572266 2 34.532686647439476 20.203520455890583 2 47.462027647254132 14.206545205158129 2 63.217052474049218 10.938415894570726 2 35.582138112258583 1.2 2 44.453289561298 1.2 2 59.81407811023989 12.157847229869411 2 30.955857978570076 7.6003116452103034 2 46.592194211494572 2.5690690222581343 2 67.788402305572234 10.012748390064235 2 31.79176382417716 12.344652226645184 2 47.044871013668214 18.490220651092223 2 63.079920214140614 1.2 2 31.029373319649999 16.830690441002158 2 51.400959860512543 7.3167607315964247 2 61.3113445548153 13.431626004949079 2 32.320485666841002 4.0426060981004666 2 44.402121005982821 10.645728954379402 2 58.847281815499926 17.566559383421399 2 29.354840410549468 5.1310415409226646 2 47.003898370608766 5.3715759358456037 2 64.297873947134534 2.9421279043650257 2 38.895845562203526 17.070767146010834 2 45.267687134397988 17.946940701987572 2 58.706674983396056 1.2 2 33.265202841423545 18.381695458797026 2 48.492732599470251 15.325244267231968 2 61.238932061773454 6.2580341019559311 2 31.948674886504769 1.2 2 44.106528535152584 5.5685545003656536 2 55.150407232194127 16.384290101135896 2 31.853420733234287 9.0682060085466674 2 48.349850268327394 2.1750992865652679 2 65.370621100626366 8.0853302099723088 2 37.457092682813581 11.134303607030319 2 50.83114566734163 19.408478426980654 2 61.568222742533244 4.6122751971503941 2 29.346588666938651 14.022449369301889 2 48.044933998762353 7.4160721945646291 2 63.667863658571228 16.709450980487347 2 34.600338183397461 8.8971683580613501 2 45.183075111169856 6.6785926481815228 2 61.502487183788787 20.7422262809832 2 30.242107588738254 3.0438409923284282 2 50.879850986160633 3.3220350051902789 2 65.437973190740905 2.9554366481063732 2 35.706596325947658 15.928895450429614 2 47.077942813250289 9.5623874327924288 2 61.981518317854359 1.2 2 31.53002144049842 18.729534557238164 2 47.244554482873781 10.859204002487992 2 61.98668087930691 8.2482502394831432 2 33.10138655767868 1.2 2 42.068601858600985 1.2 2 58.373947717095454 10.514651493866673 2 28.899570442236236 10.060689037317726 2 45.181462376822267 4.3964634899483501 2 67.506596912540175 7.4371728644570991 2 34.227032055449477 12.39986622186994 2 45.745053687010639 14.76071675075522 2 66.349895132146315 1.2 2 33.174448673498532 14.779219356019944 2 49.931886145229385 7.7802794394831709 2 61.347583774529213 11.855106918216343 2 32.668147144980459 5.4608267278026261 2 44.411979799783829 7.9072532758671237 2 57.537876131157184 13.998986629308781 2 30.469780354185275 5.4231171350349285 2 48.783176975155406 5.3923076965963128 2 64.31394636671584 6.458969669369151 2 38.227546694872565 18.878620256365153 2 45.079598756672326 16.37819244171402 2 59.41010599366755 2.9028755830581559 2 32.995261900727257 13.289753131093741 2 50.030010772561013 12.003612580432735 2 59.689945202684676 5.9787822487024034 2 32.528198020587297 2.7024334355049442 2 43.70511118054538 2.4102513559455203 2 55.443053436445091 14.127683096841466 2 32.088996964171443 7.1918806912610158 2 47.828880178877426 4.4490647733619477 2 62.397794124697057 6.0747566596255176 2 35.395808291202158 13.176842153877772 2 49.322530494831085 21.595556157102273 2 64.087531733162194 4.3456593346187375 2 29.906026724878259 11.898700285541562 2 46.656084706135864 8.4993140712214643 2 60.117106440499235 16.410574723283816 2 32.995535504180651 8.8646700533185623 2 45.249684741969425 2.5149157078110016 2 64.447396147881236 18.457499495809742 2 28.997349169715068 1.8409370352483754 2 49.756372680986182 2.1793631525687602 2 67.496043479144276 1.2 2 36.904523655386065 17.362457912669974 2 46.198175875192796 13.118285634613338 2 61.587881275540092 2.7227000440449243 2 36.460625514963354 19.594278330812838 2 48.242702504122349 12.776578133784637 2 62.842180685758507 9.5499674741779028 2 36.333480473910313 2.3592177186085239 2 45.629272985727532 1.2 2 58.50883792408824 12.636106862382979 2 29.956369639844066 6.8441284777580584 2 46.857850954912287 1.2 2 66.725082398926105 11.189847968892789 2 31.690226470571606 10.595783587256088 2 48.671991729121899 17.315824534966332 2 64.170432860618874 1.2 2 32.383229930356755 16.4204404234215 2 52.316435006171709 5.8937894809490201 2 60.745755355256748 14.957464215370772 2 33.739824112085785 4.0449266336950416 2 43.365588424152627 9.8771864988532929 2 58.440708889745807 15.605524868754596 2 31.192789350443732 4.202246222889146 2 47.315964369508897 6.5277805386665264 2 65.286340078593327 4.9834013350222843 2 37.654670005648697 15.590565100940728 2 45.674821560100959 20.22121767608828 2 59.822819358222667 1.2 2 34.082803036645863 16.469310908090836 2 50.023120811036129 15.401920758524966 2 60.861194112776651 7.4977141949080766 2 30.800018426210404 1.2 2 43.497312523500455 6.6820890838271181 2 53.228502340115291 16.086455426663306 2 30.530379763102729 8.8926526272107207 2 48.189158558419273 1.2 2 63.995843796255372 8.3944319389924971 2 36.723278404738238 12.304410352803387 2 50.411228337431922 17.250081697311035 2 62.562110255323958 4.0251789479110585 2 </DataArray>
<DataArray Name="forces" NumberOfComponents="3" format="ascii" type="Float32">0 0 0 0.012804447949237456 0.16094423476922143 0.0 0.002912349907093735 0.14278532854925277 0.0 0.045746319845388794 0.30453031279084086 0.0 0.031455410954268681 0.15682507931197723 0.0 -0.039241761618867499 0.074572680653885781 0.0 0.031990044503627732 0.25046840176085733 0.0 0.11218120008156143 -1.8349376874949173 0.0 0.054926261555057379 0.0061853773111039262 0.0 -0.0029107169683634249 0.13209732241795347 0.0 0.01166816455406736 0.20147337856781122 0.0 0.012261536834880904 0.12980135802708617 0.0 -0.040588660085101091 -1.298279771165848 0.0 -0.064750942302353426 0.3315441704330499 0.0 0.04901359129741456 0.17805355545521168 0.0 -0.072891646375502356 0.13952263121823388 0.0 0.024216750334515258 -1.778717528355136 0.0 -0.018404313096783642 -1.451506063662547 0.0 0.033334184934160932 0.18695604183873596 0.0 0.0029656423124477804 0.22087203288506735 0.0 0.031179900266310678 0.069201976614425176 0.0 -0.0088163032775275818 0.11284220499834642 0.0 -0.072753489190559573 0.044603935453298549 0.0 -0.024529677440747022 0.30103370608778679 0.0 0.047957021954755152 -1.315383066552092 0.0 0.015195023928189333 0.24737605941634905 0.0 0.079659498141669838 0.1249214431409571 0.0 0.013614647210072439 0.1243078677959456 0.0 0.0023074287487590758 0.23505522316604899 0.0 -0.00043002411155834697 0.11286605441623479 0.0 0.0513082989045483 0.20391751311955986 0.0 -0.0053376381569162634 0.084037483845338157 0.0 0.009289162617707708 0.098391655113992393 0.0 -0.042612017430874755 0.048488754923845301 0.0 0.099704091077734702 0.33323141485234248 0.0 -0.037567406024869299 0.15720659939437659 0.0 -0.018601046316353315 -0.039734541918669708 0.0 0.030388168163149473 0.23360909685354347 0.0 0.012198061914488051 0.2143182512770847 0.0 0.029417826719557671 0.066891664847207807 0.0 -0.021651556079092082 0.024060416449642408 0.0 0.08162896637939554 0.076618882011024875 0.0 -0.038452774214447927 0.15375678640235388 0.0 0.020132851881076344 0.19130500915696069 0.0 0.037815569380552722 0.11678009738854497 0.0 0.036653010655026463 0.17561493955197005 0.0 -0.018372947868368628 0.16916614016701848 0.0 0.0085669628861178293 0.22337765198320511 0.0 -0.081482039037100162 0.095404631765111714 0.0 0.0062770509451925416 0.20005850665875485 0.0 0.039016303474066705 0.08569596170519389 0.0 0.039511948288158835 0.27351934013987445 0.0 0.086497206158993423 0.16298165606314144 0.0 0.061458930536297474 0.063550067057104254 0.0 0.0486499183284968 0.32711955266975878 0.0 0.024940188027929966 0.024853873339856614 0.0 -0.033696660009498336 -2.1819872502955748 0.0 -0.027469724925867078 0.096024219487869433 0.0 0.030435267693126877 0.3237374044617406 0.0 -0.041961520293909316 0.15057342571971838 0.0 0.029374908474001205 0.06617568338160229 0.0 -0.047790213284380101 0.35091136221262625 0.0 -0.021614204977030427 0.21994040080898314 0.0 0.014855468501636104 0.14042596240143568 0.0 -0.0047522447605609364 -1.7827064672940569 0.0 0.0061678483072387102 -1.6609576989542973 0.0 0.046408967977402238 0.23032317518001078 0.0 0.082059487367404094 0.13068094339964897 0.0 -0.056868555873507226 0.070713755358664504 0.0 0.0411432027671087 0.1368591055648547 0.0 0.071659165516366974 0.24710515976478797 0.0 -0.038511153974981865 0.27000149670689733 0.0 0.0090498297213290613 -1.2495611659969299 0.0 -0.046254962920316056 0.26700799148256543 0.0 0.029221369680012869 0.098748053829757571 0.0 0.10019907354187577 0.21728640257139789 0.0 0.0053035326517196779 0.062142425248109617 0.0 0.040470025649124164 0.16376628095203594 0.0 -0.029221580093417687 0.28026623462998063 0.0 0.0017453638903603963 0.095373387646515262 0.0 0.010084684490628826 0.14318595581733695 0.0 0.0085117929769500389 0.046148772925191317 0.0 0.074206081355513875 0.26973550876273722 0.0 -0.082648923725953088 0.30060479208150281 0.0 -0.13315218866647105 -1.4908578481564008 0.0 0.014274945638173137 0.33930307852392072 0.0 -0.036944607809856977 0.21846128049657187 0.0 0.073015980930480284 0.093635508296363135 0.0 0.083564373381494361 -1.635405889694018 0.0 -0.025411127705716408 0.13542790515520864 0.0 0.062490104464413943 0.29337239063959808 0.0 -0.022714030458259593 0.18042445946398789 0.0 -0.12326630107512915 0.14266563626768836 0.0 0.028233159107449946 0.087683289774710155 0.0 0.025815016434042715 0.071991687349859168 0.0 0.084390038841862636 0.45802708709442369 0.0 -0.052950902101629893 0.013564533768526177 0.0 0.045406666434267662 0.25896169583270212 0.0 0.0076916024849604803 0.14840417350014201 0.0 0.055296942385364645 0.33159950182573861 0.0 -0.0069536081082411938 0.15120502520655635 0.0 0.019731004542838604 0.12033885863719644 0.0 -0.0088935640617760353 0.31429436666352661 0.0 -0.0073339686252281988 0.047138349691277046 0.0 0.092568802164708835 0.045372602454414879 0.0 0.0064050390587553872 0.037941521849913618 0.0 0.02992438194801883 0.26781229341570334 0.0 0.081367153163538875 0.12639998076837355 0.0 -0.0030427081776146503 -1.3328287493446322 0.0 -0.010095900182798156 0.24238549534688869 0.0 -0.0048356137394135607 0.16913610161450277 0.0 0.0073866558905478219 0.16925364625782571 0.0 0.047269878594580761 -1.7237487452935498 0.0 -0.019382146300087999 -1.6250266371540778 0.0 0.029310371583209038 0.13493063615338238 0.0 -0.02817448999315092 0.18397473635066394 0.0 0.039353424790870305 0.083998962863154891 0.0 -0.0037342929007798675 0.070740406381866516 0.0 -0.079065507879982289 0.20868912397081052 0.0 0.027813659190322776 0.27115515773158061 0.0 0.067735409707362582 -1.4010856855200531 0.0 0.015548392855878834 0.23133626794066042 0.0 -0.033598149485145667 0.15266944881108976 0.0 -0.001058667736160146 0.13851507246742639 0.0 0.0059938095075986464 0.035509813093402343 0.0 -0.037198866757797044 0.16914219755132032 0.0 0.032273436797678801 0.11488407149276764 0.0 -0.012926091085946084 0.099443061764739965 0.0 0.069840074601675586 0.088109103530572275 0.0 -0.038358596495251099 0.093290873557304754 0.0 -0.01062712237574559 0.29265513652399544 0.0 -0.059125988097285392 0.26133855145624724 0.0 0.047934028047835697 0.089297362011373171 0.0 0.020997685109287928 0.20282108581919189 0.0 -0.015638163936603111 0.15046145713904402 0.0 0.048912902424555815 0.12315717437628737 0.0 0.021846838073872082 0.074321607499596307 0.0 -0.076264234065691619 0.0076476747147629712 0.0 0.0078888944933650507 0.21162082298306717 0.0 0.039621730664965882 0.070888030378819647 0.0 -0.02364028850549782 0.13583771998305452 0.0 0.0069173234348431922 0.12656936104590955 0.0 0.021655338832686333 0.1601986632745227 0.0 0.062421638198034472 0.22231508373217668 0.0 -0.016285392964292877 0.085336798215003784 0.0 -0.00265284412889219 0.19295362517104944 0.0 -0.054270656964172562 0.16294452738065107 0.0 0.016654261304056395 0.27182651426139459 0.0 -0.058658133110754018 0.18768963404922021 0.0 -0.080636220324485308 0.026790859279876872 0.0 0.063209363257422421 0.36364219274784459 0.0 -0.122714883132923 -0.15910969185977797 0.0 -0.014053926605788691 0.0078722746215660888 0.0 0.070690263597798619 -1.4259869038178545 0.0 0.026322002556929014 0.30426361592934614 0.0 0.001297882704717368 0.19912811402249492 0.0 0.039445276907480953 0.045262073076318243 0.0 0.0092226177680119655 0.38812040689016314 0.0 -0.027103190293771451 0.21739723486064594 0.0 0.031264478573347354 0.15631088958408257 0.0 0.020896557202660898 0.063875542744024932 0.0 0.028244733900346208 -1.6552022019393129 0.0 0.0081910141867130304 0.16693845390352569 0.0 0.030852723272173602 0.17681794651443772 0.0 0.018414748027794081 -1.5492573400510037 0.0 -0.0017695075478482147 0.15623784494991949 0.0 -0.051761146561947829 0.15711590287878494 0.0 0.021648697825548791 0.23889636356712929 0.0 0.024966277368093315 -1.1906227619556877 0.0 0.019637310224007276 0.28517622743206028 0.0 0.095093560086030315 0.031158298530345074 0.0 0.024486759961532593 0.23123898770811449 0.0 0.0053549094418606676 0.1580034158225756 0.0 0.017501567456802383 0.18208910258275146 0.0 0.017200620934086308 0.2139439525415677 0.0 4.0919712160303323e-05 0.067096538433371433 0.0 0.045469673178079539 0.12103227156083118 0.0 -0.033213114169688973 0.041114929118156063 0.0 0.049319613710560206 0.2589007033471929 0.0 0.078102660225804782 0.35156321121346901 0.0 -0.053763666623113666 -1.2479233918927957 0.0 0.010752119405977201 0.286514377935285 0.0 -0.0033486681066211138 0.2750217837495178 0.0 0.03955803875506031 0.11141675567036746 0.0 0.06663235827269226 -1.644028337967145 0.0 0.03466320751370161 0.19157175069284149 0.0 0.023273405085066035 0.29674668015344408 0.0 -0.017803558143499876 0.088839232237202359 0.0 0.015838098343613716 -2.1770025424042521 0.0 0.056343360733839776 0.17870701547697787 0.0 0.015510953661389104 0.11769732135015043 0.0 0.05657199646747739 0.3823414459321966 0.0 -0.011342036930842403 0.074959492969300268 0.0 </DataArray>
<DataArray Name="radii" format="ascii" type="Float32">0 1.2 1.2 1.2 1.2 1.2 1.2 1.2 1.2 1.2 1.2 1.2 1.2 1.2 1.2 1.2 1.2 1.2 1.2 1.2 1.2 1.2 1.2 1.2 1.2 1.2 1.2 1.2 1.2 1.2 1.2 1.2 1.2 1.2 1.2 1.2 1.2 1.2 1.2 1.2 1.2 1.2 1.2 1.2 1.2 1.2 1.2 1.2 1.2 1.2 1.2 1.2 1.2 1.2 1.2 1.2 1.2 1.2 1.2 1.2 1.2 1.2 1.2 1.2 1.2 1.2 1.2 1.2 1.2 1.2 1.2 1.2 1.2 1.2 1.2 1.2 1.2 1.2 1.2 1.2 1.2 1.2 1.2 1.2 1.2 1.2 1.2 1.2 1.2 1.2 1.2 1.2 1.2 1.2 1.2 1.2 1.2 1.2 1.2 1.2 1.2 1.2 1.2 1.2 1.2 1.2 1.2 1.2 1.2 1.2 1.2 1.2 1.2 1.2 1.2 1.2 1.2 1.2 1.2 1.2 1.2 1.2 1.2 1.2 1.2 1.2 1.2 1.2 1.2 1.2 1.2 1.2 1.2 1.2 1.2 1.2 1.2 1.2 1.2 1.2 1.2 1.2 1.2 1.2 1.2 1.2 1.2 1.2 1.2 1.2 1.2 1.2 1.2 1.2 1.2 1.2 1.2 1.2 1.2 1.2 1.2 1.2 1.2 1.2 1.2 1.2 1.2 1.2 1.2 1.2 1.2 1.2 1.2 1.2 1.2 1.2 1.2 1.2 1.2 1.2 1.2 1.2 1.2 1.2 1.2 1.2 1.2 1.2 1.2 1.2 1.2 1.2 1.2 </DataArray>
</PointData>
<CellData/>
</Piece>
</UnstructuredGrid>
</VTKFile>
