<?xml version="1.0" ?>
<VTKFile byte_order="LittleEndian" type="UnstructuredGrid" version="0.1">
<UnstructuredGrid>
<Piece NumberOfCells="0" NumberOfPoints="512">
<Points>
<DataArray NumberOfComponents="3" format="ascii" type="Float32">1.4 6.2534791878185336 2 9.5945164581936577 9.3914422636596555 2 17.977229659168188 6.5553069787673266 2 27.928982464328751 15.802376608746405 2 8.7244507213570479 7.3986461846086362 2 12.764177675835635 14.215383490010501 2 14.6150081893886 15.861947829959195 2 23.688903005009177 9.0137848686843949 2 1.4 15.905836411604346 2 13.353708479815424 21.422242752069934 2 22.92421674686851 16.23385401363133 2 24.44376370704553 4.0684997619846204 2 4.4301599470840642 5.3109502956088317 2 11.331290314750239 12.938058348899574 2 17.85419095560993 10.387771487986237 2 25.82465993985172 14.859425376673469 2 3.6187409384917992 1.4 2 13.562401335213348 1.4 2 20.453994019420623 4.1669561600028056 2 27.252319045500105 10.383854964783383 2 9.0390034427571031 15.166469629220673 2 10.599494474793387 19.305050308181823 2 19.424224857391899 10.803597216905716 2 22.754150347477474 1.4 2 4.565541675229948 16.992736417767478 2 14.957343464630592 7.3549188973855832 2 19.81822102328497 19.149058843001296 2 28.040582093109848 4.9656005066304507 2 6.8995243013854495 2.8034527477623761 2 11.645251692344631 1.4 2 18.885307107212903 1.4 2 23.068051648759731 22.505149326481195 2 1.4 10.980522002890378 2 9.0373500094334478 3.8613471365932899 2 19.575922271668414 2.2704045575834981 2 29.658070837514693 23.545880223687654 2 5.5407802903598533 10.166455047681414 2 13.434564249711373 9.5903896144983438 2 18.290796621155234 13.739386733963928 2 23.554653354032215 10.192987508633188 2 3.7836720859566229 15.165973600200369 2 14.569297190022096 22.172853024354868 2 21.141780036488463 13.086674882589191 2 25.457007868715419 4.0727429733207394 2 3.8411995554510336 8.7295671899088063 2 8.9410789460227438 9.9837546547422296 2 16.069556800356303 9.0012315937370193 2 25.655801857184471 12.603707819753637 2 2.666196840206736 3.9554667143139324 2 11.2537908176797 6.5551400270325946 2 21.028650924333494 8.7109273362115243 2 26.096083532010997 8.3557527412557597 2 3.9981878803383974 21.778581530651778 2 7.1676674045763598 22.97307380528791 2 18.866288661174654 17.767923199205097 2 22.089254587312038 5.7792860414634832 2 2.8969889415906187 17.222530872366079 2 14.776006653710603 11.272103925179701 2 21.004283437794321 22.902500953643678 2 27.083873446045235 1.4 2 6.0934017071650493 3.381228146377659 2 7.5377247607555189 3.5532233922362866 2 14.244890077315839 1.4 2 25.12813620799151 21.756958065099358 2 2.5852874922528284 6.0337894170413779 2 8.0971215687892943 11.673679505510547 2 17.445306881349264 4.1090489237479275 2 30.157520462800221 17.296088219363533 2 6.1042413137851117 5.0625226013397002 2 11.923118945180672 11.774824143840382 2 15.509390989137787 13.296334345838961 2 25.718904041603764 7.3864182507698413 2 1.4 13.829234455077653 2 13.58039263565661 15.523684424355903 2 24.153649434986825 15.801909224175231 2 25.896255162380321 1.4 2 3.4441763644654544 4.6658357756120088 2 10.480200550377917 15.526149518017448 2 19.358452033461425 7.7042610508895324 2 26.414152606418831 16.773998140281176 2 1.4 1.4 2 13.016125983776968 3.2435822682989017 2 19.110812064822394 3.9659701182843952 2 28.401691067851058 12.710655358115392 2 7.1347829390318838 16.304944983003633 2 11.493221593669977 20.367338334624144 2 18.485102863047647 15.367040015601168 2 22.378704709086492 4.860173704506761 2 5.0444787877237935 13.869526944823912 2 16.12183081086819 4.0416114681701245 2 20.532147930538919 16.336920836552874 2 27.991802716912289 3.914212638231604 2 7.9640352510846677 1.4 2 11.016096436463725 4.9291670599620048 2 17.188750293146256 1.4 2 21.110280081136853 19.954665879441187 2 1.4 8.2505955795815726 2 10.555252831327939 7.4044072139968735 2 20.172440845511282 1.4 2 27.829557602485782 23.555170134314999 2 6.8962889236051117 9.2539307821716665 2 12.418782907602399 9.2184419321440458 2 15.924663055361247 11.74673137758953 2 22.36821013085806 8.6828247273686756 2 3.737209584652347 12.875137317740844 2 14.147231720630868 24.061155083604124 2 23.328987704247766 13.644381573181901 2 24.071347652756675 5.7807039709565657 2 2.761172564731929 9.728971262587109 2 8.4653513614280786 12.627457328212765 2 16.138958196178255 7.0147442521966727 2 24.872884041830421 9.3111846854021625 2 1.4 1.4 2 13.515625553331692 6.2804535545439597 2 21.424301911529305 11.936487080790759 2 28.798584809525561 7.6280015302793753 2 5.6729609198815636 21.422156777566098 2 9.4822220585589356 18.715497336282603 2 17.092220566906146 13.501970798556364 2 21.56793512424429 6.869514326054456 2 1.4 21.766147399214297 2 14.011600719023509 13.276596121358875 2 19.936319763890936 21.151358544902227 2 27.701323501704579 2.2652521515951034 2 5.6820025881139662 6.8249426412739362 2 8.5979659715014467 1.4 2 15.300560644714832 4.7776754340522416 2 26.479561156832251 19.240048625781082 2 1.4 5.5737479896219293 2 11.280920057395216 8.1897070446681859 2 17.689481849433392 8.1634553106659506 2 27.726338358573823 17.184822155252132 2 6.8243571357605513 6.7432274525939926 2 11.59460099270539 14.352601147365187 2 15.227907718541228 19.285633924941436 2 23.73344886893749 6.787106017957206 2 1.4 18.152492701237783 2 12.353221739320729 18.13626537823562 2 23.591312160530222 17.227757530818995 2 24.028820942728061 2.4349179993264798 2 4.2439837895718258 4.1466934123010963 2 9.3122816896209581 13.400867973525738 2 18.717180524538342 8.8022721947162115 2 27.190384070969877 14.506778515599876 2 5.1997499553820488 1.4 2 12.887402438497856 1.4 2 20.466125838182123 5.3161395975602357 2 26.212771091440729 11.813122159167582 2 7.0338622491576919 14.43561703317113 2 11.889910800475562 17.014226606530141 2 21.02974132346073 10.773007465637447 2 22.994325449337794 2.5140399168305256 2 5.3005488866423915 15.836612829948528 2 14.675799928238527 5.5559749825125149 2 18.81475484151305 19.975146342836499 2 27.264221139264873 7.5874221554777881 2 6.8040066462478119 1.4 2 11.469871243289489 3.004867363036305 2 16.486598244291105 2.3436830491698526 2 24.859057073847918 19.667319487551254 2 2.9708326815466024 10.716829146010785 2 8.3005889326692799 5.4228991719254251 2 19.495829010829816 1.4 2 30.238268581403911 20.498069183875689 2 5.8533695001548773 11.306632356572734 2 13.558301659991777 8.5988062159702778 2 20.382871306530401 11.672184343886364 2 23.505853453149914 12.348114400735476 2 1.4 14.840589768408279 2 16.230185337795753 20.753130978110178 2 20.42191119847541 14.203210919162542 2 26.854779205477058 5.7220800231897408 2 3.3008343957801007 7.823858855145426 2 8.630543927347226 8.6012374384180532 2 16.818737844658891 9.7205575388595271 2 25.137007249358984 11.263983272803801 2 1.4 2.9760464422394284 2 11.888843598077385 7.2997351879541412 2 19.767102112023476 8.9186229267867834 2 27.645921026099252 9.3990661286894213 2 5.1468043696353849 23.250196729670392 2 7.9883666500972339 21.518090793753618 2 17.992987022022376 18.840462040022089 2 23.173263411385474 5.4900003441996654 2 4.2955089037438174 20.086462165947211 2 15.414988283357719 9.6866978574041518 2 18.55142496952401 25.037820861393925 2 26.576510330639813 2.8780971299002061 2 5.0839259339260776 3.4478324496761923 2 9.3570848948114804 2.2012881519775744 2 13.946232528532825 3.3070045126901491 2 24.529701988910052 23.600339124523796 2 3.590346435212965 6.5927943169486092 2 10.312773984310688 10.74547230876712 2 18.76918967851131 3.0307967971399754 2 29.119049579710548 18.432826513359082 2 7.5304576553840894 6.0600528172537986 2 11.493438899748396 10.626294438069198 2 14.861755509335023 14.284238235640176 2 25.106016923248959 8.4135152463143097 2 2.5855595633367661 13.169126617414314 2 14.053535619992632 18.190501255983296 2 25.125609803313207 13.93388518908302 2 24.602817289782173 1.4 2 3.3321085242862059 3.531190142984248 2 10.633509715364282 16.813803658187716 2 19.816668411465152 6.1165505756460448 2 25.340553230603977 18.055372692830627 2 3.0762393134813855 1.4 2 12.228405502323065 3.6426067294531639 2 18.340907793905629 4.7004584225070678 2 28.639284897033352 14.644514769992897 2 8.3902157393401033 16.627450809491684 2 9.7199402133229515 22.958404991340306 2 19.813219213501498 15.293827538553527 2 21.507895882711832 2.8234931298786385 2 5.7693334487660533 12.534605236266259 2 15.795349911758223 3.0530425347948551 2 21.666477114795217 17.728369975043496 2 26.493389715084181 3.9681702368982261 2 7.9695976195608811 2.3972486390750434 2 11.781183566744586 5.5411333604316422 2 15.389103584532515 1.4 2 22.625993856741136 19.362170216820559 2 1.4 9.5650317200998813 2 9.5652392336393959 5.8885872298866326 2 22.156148488491368 1.4 2 28.857884505709304 25.661808698226007 2 7.5407640507302487 8.3534697873617212 2 12.818179426791255 11.249461226357871 2 17.758740987900435 12.486480907697937 2 22.403947564571848 7.5257650570900463 2 3.7776124944854899 11.212099387794725 2 11.994040391850712 23.182652343480644 2 21.429078649426195 14.432807157721259 2 24.974542411828057 5.1267488912047039 2 3.8377574284487026 9.799161246305756 2 7.0531543767414941 11.503221468021744 2 16.058726098315727 5.41699374215764 2 26.430041372060497 10.777264969585687 2 1.4 2.2494462705101324 2 13.293002017924861 4.1859397610999602 2 22.168744443080147 10.804178709036401 2 28.341052691383624 6.8464374594349984 2 5.3614892636291627 18.26270969840094 2 7.0558252214067654 18.664410819926733 2 16.937518405499276 15.630802324965394 2 20.291931771890127 7.9121726971988124 2 2.4530182425343345 19.712869764984369 2 12.322885597180933 13.162786850951745 2 17.51210067101416 23.547332753356869 2 28.403305807920397 3.0920543639480869 2 5.9773743989614863 8.2332303296816001 2 9.9373936109976686 1.4 2 12.99215350434172 5.3446340144104552 2 27.749093233296072 20.012461493958618 2 1.4 7.6137840461895072 2 10.291958713312983 8.616036600837317 2 17.774340781997772 5.5735581194043533 2 26.76197478781117 15.675655715379413 2 8.6230756026717241 6.3573729959443277 2 13.822982816827066 14.452542789058851 2 15.738482012625507 16.443514924328184 2 24.108072838153458 8.0449949126650857 2 2.3678338962205201 15.846196618387911 2 13.662068300671935 19.559733174801828 2 21.857987767692887 16.63042857139942 2 23.640322589997368 3.5219104751905066 2 4.1429201812386953 7.5599024677996471 2 10.594809686790953 13.706128452912115 2 17.284752955660725 11.553579876438965 2 25.394628079506894 15.908068645937361 2 4.1352349803403747 3.1653040806343671 2 14.833987687288472 1.4 2 20.679111184477762 3.3645461463443 2 28.208215523636767 10.637041282068585 2 7.8784532764699993 15.261257842273865 2 10.814956964646457 18.027837259150516 2 18.440966302296864 11.36184700710518 2 23.984477581362068 1.4 2 3.6157859765583917 16.311685701208209 2 15.664337160073464 8.0094108859282898 2 20.892838104101379 18.617641504150527 2 27.08903456848412 4.7736760071553412 2 6.2707137378892446 1.4 2 12.260392448646678 1.4 2 18.345185706683633 1.4 2 22.683036094538991 20.66034238165679 2 1.4 12.17894908407386 2 10.305583523423344 3.8546326279023191 2 20.808783042275266 2.0005949775206138 2 30.387471637025492 22.035907057798326 2 4.8620156029203612 8.8664945457654039 2 12.501899348054094 10.306916973677868 2 20.044659559403176 13.052599772650563 2 23.463442034988041 11.223929181867724 2 4.8617585712159004 14.837328762443418 2 14.733749160044418 20.614388858904878 2 22.353300224083537 14.23690465667417 2 25.655625146095403 3.2799667964022179 2 5.1370391351576137 7.6807719613731846 2 7.9501378477966282 9.4177380910447752 2 14.708435824167903 8.535141338790929 2 26.204656382278181 13.630519949617794 2 1.919474951891486 5.0557567009689368 2 9.7570800722561444 6.8881665601093527 2 20.857809871869552 9.697170475715442 2 26.976741026493187 8.6079368309866506 2 2.3496963897809033 23.521103050234661 2 8.4648250209572318 24.602737421730673 2 17.787733906957101 16.392693988398445 2 22.732935128876697 6.5528730185778477 2 1.4 17.07491638881206 2 13.800604578003481 11.833582634764504 2 22.458235059437737 24.356992501542233 2 27.734997428306052 1.4 2 6.6573460424832858 4.053322092549033 2 7.9527981292010557 4.2947297706165282 2 14.80081996719402 2.7016462470331573 2 26.203861630884177 23.011470622203021 2 2.5265178867234628 7.1611952903254554 2 9.5954740995681114 11.561747350334544 2 18.037960404970995 3.5343605774947897 2 31.40115820551431 17.954371817167566 2 7.200877477881523 5.0723941529207348 2 10.834390166723839 11.832959906459893 2 16.197022685824095 14.226892751892336 2 25.829408269598272 6.0547801841948079 2 1.4 12.96341557446131 2 12.597648453629715 15.880952589118097 2 24.233540318176356 14.623140874356555 2 25.216748549233202 1.4 2 3.5077674286916722 5.6062833339205209 2 9.933238893402029 14.520405842315311 2 18.423794529779219 7.6259699138845294 2 26.594920374772144 17.977298647110914 2 2.331175185363819 2.0005441561232908 2 12.333253469468557 2.3423683142772873 2 18.8259951648696 5.5972999382249951 2 29.594086643165674 11.934487895008594 2 6.3516189576718709 15.29821444105888 2 11.794726910265171 21.75437275014022 2 19.195143075313776 16.483600484538638 2 22.85906857491657 3.9606589941945591 2 6.1673191606644924 13.76317112819161 2 16.890748923716597 4.9184953504987119 2 21.419975423753051 15.539710443333908 2 28.996631267826501 4.6290407163126375 2 7.3636228936511436 1.4 2 9.7659136918076861 3.2585203322610345 2 17.673748837456039 2.5895429211557168 2 21.421857782729386 21.419601645695266 2 1.4 6.941373560251014 2 10.589169786409558 5.9258581419862306 2 20.91336174856086 1.4 2 28.593357037599748 21.8365846631261 2 7.7131250209858839 10.44418773820037 2 12.427677742377954 8.1875481758418047 2 15.540233106319548 10.629264877612474 2 22.837312448032819 9.7165221459902433 2 3.6006383239029254 13.993150001469076 2 15.902906792679701 23.695001480755312 2 22.270993841016491 12.972314401627072 2 24.870321863045497 6.2131327867393766 2 1.4 8.8915152785595559 2 6.7989748600157141 12.474945090620061 2 17.09090537691247 7.1169356195942068 2 24.467280288601039 10.411589347063183 2 2.1735840068893837 1.4 2 13.872430143533677 7.6374174517283482 2 22.455507182994971 11.867170340510736 2 28.043431153030323 8.3791317153902085 2 6.7526299625170418 20.466708276285768 2 8.0500152025131388 19.317556000576971 2 17.586320865740056 14.658683594455372 2 21.08638824836661 6.013659591649807 2 2.6890254819426853 21.117904008859036 2 14.857069404729014 12.41398602319512 2 19.184402670861459 22.699263117233599 2 26.502671210762966 1.4 2 5.2262138301505852 5.6452665226118111 2 9.2496715841625203 1.4 2 15.181834979120744 3.6512177508396966 2 26.100042625997439 20.491945487416679 2 1.4 4.0125053977150253 2 11.440716148861277 9.3158026886118943 2 16.719904896164053 8.1682702738974715 2 28.930118867435556 17.033103195421322 2 6.7129165000032867 7.7192719173565427 2 11.634525437115958 15.488359048438104 2 15.839062526420753 18.314987533876007 2 23.207150462705297 7.9279954403141204 2 1.4 19.56749772786441 2 12.454640459689996 19.455106563076722 2 24.170130468243482 18.662900394464032 2 23.365606257843076 1.4 2 5.4340012518094509 4.29334663585378 2 9.8889406244285549 12.504814771732935 2 17.675514023862629 9.1949653531937265 2 27.109586364585699 13.064827969395749 2 5.7584602504844007 1.4 2 13.720828299259281 2.1153530062308659 2 21.363653022208126 4.7897093948367147 2 27.212616021084834 11.941747298422758 2 8.364160838513131 14.023422220524218 2 13.322520347202063 17.108399686486909 2 19.895468844687965 9.9758826470321935 2 21.716108619705473 3.8342217213171121 2 5.80705480062419 16.96654608562423 2 15.499860513386887 6.2036937654045046 2 18.228534673539308 21.135492460354929 2 26.453451626375951 6.9181291767245261 2 5.4506933453611204 2.6628499512929515 2 11.102703833579534 1.4 2 17.790008395310466 1.4 2 24.023973913745348 20.944867302225653 2 3.1738603141696582 12.033743019080868 2 9.0496803529051508 4.840868070510826 2 19.751592368694102 3.3518443450011337 2 29.038411349881617 20.094480316223219 2 4.7248986592797744 11.596174116602761 2 14.422698932233807 6.6106147178529939 2 19.481805123392864 11.934573058029041 2 24.537530235733186 12.023182962511216 2 2.4861688668615289 14.509376744325442 2 16.993505348851262 19.533771085345801 2 18.884985383570445 12.754765762306745 2 28.249133600960935 5.8341888763697414 2 2.8087424428711638 8.7269046729559943 2 9.4981783114165186 8.0093057609915519 2 16.683718260328135 10.739423266844797 2 25.519572160144669 10.115870380187284 2 1.4 4.653873941463738 2 12.986531988634002 7.2569516737316331 2 18.735724900325692 9.8881339809622659 2 28.973785967251185 8.7746087514351707 2 4.2631315971819737 25.002298731200707 2 9.0437799605695854 20.341181528784244 2 17.515512626625291 17.666117320380671 2 23.771151378185326 4.7393079232411104 2 4.0958908955973747 18.589857891598047 2 14.463756294193107 9.6071473255822557 2 20.559071604526732 24.938286243049888 2 24.67768059622442 3.1662816299347445 2 4.1357925843410062 1.4 2 10.578414843975791 2.644731775414372 2 14.389959173917616 4.0634575270304234 2 24.079696530959655 25.778710193179034 2 4.5942858436901881 6.4801981123816104 2 8.872326708070732 10.937449390276043 2 16.870892294287525 3.3948317095254366 2 27.942656043733862 18.593736994989342 2 6.2457032574929707 5.9166730888030976 2 10.586958400382692 9.7857315628484045 2 15.796604478675349 15.218353658445563 2 24.715287375191238 7.2398296672404721 2 1.7108914118540508 11.543370495445927 2 14.624683300409139 17.123592323780297 2 24.37592411086985 13.194335086682823 2 25.611821418674918 2.164422807817612 2 3.4327315923741826 2.6231576157790215 2 9.5071782884511489 16.5591630966168 2 18.987114787017852 6.6283284974126726 2 24.773751792794659 16.985063600610498 2 4.6485962064413799 1.4 2 11.22809149618192 3.8550436816236799 2 19.623327860866805 4.8749878895181915 2 28.054061067909938 13.782468991789544 2 8.6986255471264169 17.761312186929079 2 10.049808333201973 21.279590965339004 2 19.268268420198876 14.198159848710876 2 21.599125831546587 1.4 2 7.4794228651887913 13.219670460191002 2 15.952845446853585 1.4 2 20.039429063769227 17.520126098992282 2 27.32147152459849 3.375637165682885 2 8.5330507804084021 3.2045315689083682 2 12.195546948305878 4.6160783993898367 2 16.586146238800211 1.4 2 22.877267590415066 18.250034279116257 2 1.4 10.266947473922981 2 9.9896381699637615 4.9253964388916831 2 22.336357097839102 3.1591409490995481 2 26.389697535394408 25.281323881414295 2 7.809654108306832 7.299700725592233 2 13.907640056496463 10.59366877060592 2 16.468357062482578 12.58013880117109 2 21.37765239140996 7.8380544229479048 2 4.7718136802220279 12.784724916940426 2 12.242648946020211 25.174113555711187 2 23.048799771663774 15.057991131306807 2 25.982736423241587 5.0503361691914694 2 4.6704651494012808 10.389427461483438 2 6.6285056263189031 10.368998935937066 2 16.856851218153469 6.036114006935029 2 26.296331112816738 9.5015355747195702 2 1.4 3.5027419723055333 2 13.897380120087231 5.1065489243578934 2 21.83934852100052 9.6817559484424791 2 27.397373009135439 6.5158744971074487 2 6.9982874157947981 17.517871547778341 2 5.6554958575024568 19.529184753088678 2 16.441695852973847 17.311700537910237 2 20.34701794949008 6.939322205854495 2 2.9646812572792594 18.433952471724869 2 13.107622493049835 12.565790402917921 2 16.917987750567004 21.864970905547544 2 28.929349371601599 1.6602298026724414 2 5.7733596670957041 9.2096374438590374 2 10.505820966771033 1.4 2 12.418588332267444 6.2440985227417194 2 27.170367962525468 21.511073728454459 2 </DataArray>
</Points>
<Cells>
<DataArray Name="connectivity" format="ascii" type="Int32">0</DataArray>
<DataArray Name="offsets" format="ascii" type="Int32">0</DataArray>
<DataArray Name="types" format="ascii" type="UInt8">1</DataArray>
</Cells>
<PointData>