<?xml version="1.0" ?>
<VTKFile byte_order="LittleEndian" type="UnstructuredGrid" version="0.1">
<UnstructuredGrid>
<Piece NumberOfCells="0" NumberOfPoints="28">
<Points>
<DataArray NumberOfComponents="3" format="ascii" type="Float32">0 0 0 34.471758767055562 9.6399619048786604 2 40.840059388694669 6.671097606363773 2 82.322280266983299 1 2 37.663145039132651 8.4375699087737264 2 80.763524770090925 11.86087257177668 2 32.509826991166229 9.5290629935297311 2 39.012488109791093 4.9079424599523582 2 81.486603090161992 10.016461995813406 2 33.79805403127699 4.2105529629698548 2 35.921928772863531 7.7619027813991686 2 38.376416973864593 10.854657781998089 2 80.060434821360957 6.0840428621749201 2 42.392508424145404 1 2 34.206364785929004 1.2 2 40.256500286151642 1.4 2 82.219972000736604 6.471689984107468 2 37.046452103977096 6.0899163879516234 2 79.236498047715457 13.457361133307131 2 35.297114596436067 3.2242697440895647 2 80.719164022270903 4.4685562491474231 2 31.879572881726492 13.862727229295221 2 35.265384711768334 5.5091888086121177 2 38.978939988003901 3.0977920067668538 2 39.698669397590379 13.669451804273725 2 81.435284172764895 2.6591899842390627 2 31.370997784262208 11.536063637769933 2 81.02171119468855 7.9627395886604972 2 </DataArray>
</Points>
<Cells>
<DataArray Name="connectivity" format="ascii" type="Int32">0</DataArray>
<DataArray Name="offsets" format="ascii" type="Int32">0</DataArray>
<DataArray Name="types" format="ascii" type="UInt8">1</DataArray>
</Cells>
<PointData>
<DataArray Name="Points" NumberOfComponents="3" format="ascii" type="Float32">0 0 0 34.471758767055562 9.6399619048786604 2 40.840059388694669 6.671097606363773 2 82.322280266983299 1 2 37.663145039132651 8.4375699087737264 2 80.763524770090925 11.86087257177668 2 32.509826991166229 9.5290629935297311 2 39.012488109791093 4.9079424599523582 2 81.486603090161992 10.016461995813406 2 33.79805403127699 4.2105529629698548 2 35.921928772863531 7.7619027813991686 2 38.376416973864593 10.854657781998089 2 80.060434821360957 6.0840428621749201 2 42.392508424145404 1 2 34.206364785929004 1.2 2 40.256500286151642 1.4 2 82.219972000736604 6.471689984107468 2 37.046452103977096 6.0899163879516234 2 79.236498047715457 13.457361133307131 2 35.297114596436067 3.2242697440895647 2 80.719164022270903 4.4685562491474231 2 31.879572881726492 13.862727229295221 2 35.265384711768334 5.5091888086121177 2 38.978939988003901 3.0977920067668538 2 39.698669397590379 13.669451804273725 2 81.435284172764895 2.6591899842390627 2 31.370997784262208 11.536063637769933 2 81.02171119468855 7.9627395886604972 2 </DataArray>
<DataArray Name="forces" NumberOfComponents="3" format="ascii" type="Float32">0 0 0 0.023831076618825886 0.11196461327261992 0.0 -0.10706688300988648 0.083818710897836657 0.0 0.0059173518503791156 -0.86108287308058529 0.0 -0.034672225189640804 0.14708922586986425 0.0 0.077721485733601214 0.23928392549265698 0.0 0.049869884236743101 0.1398419571392672 0.0 -0.15102591325079989 0.028412603329013825 0.0 0.010480970355106891 0.19362328683795327 0.0 0.083656705310675428 0.083853881918789647 0.0 0.034227662495810454 0.11919073881610528 0.0 -0.060174867222205219 0.10196142213138465 0.0 0.035390413012203387 0.088286405346404029 0.0 -0.022031013196048305 -0.88319817900843411 0.0 0.010075641786679412 -0.93688887594595383 0.0 -0.016391191923680548 -0.73298116841920269 0.0 0.0060690888022758155 0.10220381524030575 0.0 -0.025159980555979022 0.039021277076339234 0.0 0.028548139308359533 0.19265149721048261 0.0 0.055093187394076759 0.022938689906209758 0.0 0.0064134922760596957 0.047572475309722237 0.0 0.089057861022890261 0.19838324611497277 0.0 0.038154284849662157 0.080788701707459137 0.0 -0.00016419478752038863 -0.019517135595507218 0.0 0.099327457866405275 0.29345619682274665 0.0 -0.0067329489459564962 0.043330048021885947 0.0 0.039839662802725079 0.22758078946891663 0.0 0.0039119068975224658 0.14206300973045272 0.0 </DataArray>
<DataArray Name="radii" format="ascii" type="Float32">0 1.2 1.4 1 1.2 1.2 1.2 1 1 1 1.2 1.4 1.4 1 1.2 1.4 1.4 1 1 1.2 1.2 1.4 1.4 1 1.2 1 1 1.2 </DataArray>
</PointData>
<CellData/>
</Piece>
</UnstructuredGrid>
</VTKFile>
