<?xml version="1.0" ?>
<VTKFile byte_order="LittleEndian" type="UnstructuredGrid" version="0.1">
<UnstructuredGrid>
<Piece NumberOfCells="0" NumberOfPoints="32">
<Points>
<DataArray NumberOfComponents="3" format="ascii" type="Float32">1.919531865093292 6.9544543621036992 2 7.8424296773627908 2.4005950626486454 2 17.367761788843257 1.1515529189583469 2 39.329325084888204 1.1515529189583469 2 50.279543255591157 6.8212389298623499 2 61.963006246292913 1.1515529189583469 2 68.192086188946291 10.075988310913372 2 83.344259316067564 1.1515529189583469 2 1.1515529189583469 1.1515529189583469 2 11.092116976603528 4.1032795100449393 2 19.7268724792245 9.7334256608957901 2 38.937242471240658 3.5697497274878756 2 47.665744080307469 6.6195580018829299 2 65.362175838105955 1.1515529189583469 2 67.151430713462418 8.6456763372484975 2 83.929666980686591 5.5690731424015913 2 1.1515529189583469 8.560301109556546 2 8.4127058901230409 1.1515529189583469 2 18.659713273613661 1.1515529189583469 2 40.597932941500112 1.1515529189583469 2 51.231080881394249 7.6970109209749671 2 63.109520467709217 1.1515529189583469 2 67.075762843460154 11.215155409013962 2 84.538009826583831 1.1515529189583469 2 2.6116540830155008 1.1515529189583469 2 10.016310646402895 2.9141941956370827 2 18.198213135670997 11.028432579895959 2 39.920978305303521 2.7526483260962005 2 48.94999765352447 7.2643851050297998 2 64.214372009581481 1.1515529189583469 2 66.146295305573162 7.299308525007782 2 85.087752486275917 5.7007008191383655 2 </DataArray>
</Points>
<Cells>
<DataArray Name="connectivity" format="ascii" type="Int32">0</DataArray>
<DataArray Name="offsets" format="ascii" type="Int32">0</DataArray>
<DataArray Name="types" format="ascii" type="UInt8">1</DataArray>
</Cells>
<PointData>
<DataArray Name="Points" NumberOfComponents="3" format="ascii" type="Float32">1.919531865093292 6.9544543621036992 2 7.8424296773627908 2.4005950626486454 2 17.367761788843257 1.1515529189583469 2 39.329325084888204 1.1515529189583469 2 50.279543255591157 6.8212389298623499 2 61.963006246292913 1.1515529189583469 2 68.192086188946291 10.075988310913372 2 83.344259316067564 1.1515529189583469 2 1.1515529189583469 1.1515529189583469 2 11.092116976603528 4.1032795100449393 2 19.7268724792245 9.7334256608957901 2 38.937242471240658 3.5697497274878756 2 47.665744080307469 6.6195580018829299 2 65.362175838105955 1.1515529189583469 2 67.151430713462418 8.6456763372484975 2 83.929666980686591 5.5690731424015913 2 1.1515529189583469 8.560301109556546 2 8.4127058901230409 1.1515529189583469 2 18.659713273613661 1.1515529189583469 2 40.597932941500112 1.1515529189583469 2 51.231080881394249 7.6970109209749671 2 63.109520467709217 1.1515529189583469 2 67.075762843460154 11.215155409013962 2 84.538009826583831 1.1515529189583469 2 2.6116540830155008 1.1515529189583469 2 10.016310646402895 2.9141941956370827 2 18.198213135670997 11.028432579895959 2 39.920978305303521 2.7526483260962005 2 48.94999765352447 7.2643851050297998 2 64.214372009581481 1.1515529189583469 2 66.146295305573162 7.299308525007782 2 85.087752486275917 5.7007008191383655 2 </DataArray>
<DataArray Name="forces" NumberOfComponents="3" format="ascii" type="Float32">-0.10676458713826359 0.16641857169776103 0.0 0.1229030819650839 0.30438804949291498 0.0 -0.056205638109069977 -0.32372940366960834 0.0 -0.053381431988260925 -0.78462694383069786 0.0 -0.032194385759092503 0.10323524766063147 0.0 -0.073186765186176395 -0.88884407963057366 0.0 -0.076289838609042371 0.17060587001271987 0.0 -0.0030881733160315061 -0.73722936534371974 0.0 -1.0098371217942945 -0.30842638470232303 0.0 -0.037702782385252209 0.1345610991198391 0.0 -0.12064744486168036 0.28360693245882829 0.0 -0.014750701536753841 0.10522414688506776 0.0 -0.076439614586432891 0.15607549231166989 0.0 -0.019309519790118301 -0.70682510097731843 0.0 -0.022768868049324098 0.19620927079666145 0.0 -0.033703409682716456 -0.072681578978811306 0.0 -0.35870021789544981 0.31838329111563524 0.0 -0.11312474195921485 -1.0023190568741724 0.0 -0.029500460695975429 -0.59396001615930594 0.0 -0.002920623605798145 -0.92506811719299009 0.0 -0.036883068537448049 0.19055011783261672 0.0 -0.058101521406173973 -0.63431852010107526 0.0 0.0035114384391207176 0.3960488804346467 0.0 0.0086656977290557047 -0.61599267516814382 0.0 0.064053693165050482 -0.68330831562437022 0.0 -0.040540834681358093 0.032611386363447403 0.0 -0.2291132951174901 0.1961263558356178 0.0 -0.061039040692111857 -0.018059550122527135 0.0 -0.011099540766029807 0.19990243249351411 0.0 -0.038001035764036351 -0.46450349608119629 0.0 -0.0042594994675142495 0.11921346840408684 0.0 -0.0075838771014512391 0.23383096983005039 0.0 </DataArray>
<DataArray Name="radii" format="ascii" type="Float32">1.1515529189583469 1.1515529189583469 1.1515529189583469 1.1515529189583469 1.1515529189583469 1.1515529189583469 1.1515529189583469 1.1515529189583469 1.1515529189583469 1.1515529189583469 1.1515529189583469 1.1515529189583469 1.1515529189583469 1.1515529189583469 1.1515529189583469 1.1515529189583469 1.1515529189583469 1.1515529189583469 1.1515529189583469 1.1515529189583469 1.1515529189583469 1.1515529189583469 1.1515529189583469 1.1515529189583469 1.1515529189583469 1.1515529189583469 1.1515529189583469 1.1515529189583469 1.1515529189583469 1.1515529189583469 1.1515529189583469 1.1515529189583469 </DataArray>
</PointData>
<CellData/>
</Piece>
</UnstructuredGrid>
</VTKFile>
