<?xml version="1.0" ?>
<VTKFile byte_order="LittleEndian" type="UnstructuredGrid" version="0.1">
<UnstructuredGrid>
<Piece NumberOfCells="0" NumberOfPoints="8">
<Points>
<DataArray NumberOfComponents="3" format="ascii" type="Float32">1.4000000000000004 1.4000000000000004 2 10.497127910553662 1.4000000000000004 2 19.048408351813894 1.4000000000000004 2 38.702664742916696 1.4000000000000004 2 49.471704431135315 2.5279812228825116 2 64.788973487846206 1.4000000000000004 2 67.410145313122158 2.0011194501842562 2 83.798023777644261 1.4000000000000004 2 </DataArray>
</Points>
<Cells>
<DataArray Name="connectivity" format="ascii" type="Int32">0</DataArray>
<DataArray Name="offsets" format="ascii" type="Int32">0</DataArray>
<DataArray Name="types" format="ascii" type="UInt8">1</DataArray>
</Cells>
<PointData>
<DataArray Name="Points" NumberOfComponents="3" format="ascii" type="Float32">1.4000000000000004 1.4000000000000004 2 10.497127910553662 1.4000000000000004 2 19.048408351813894 1.4000000000000004 2 38.702664742916696 1.4000000000000004 2 49.471704431135315 2.5279812228825116 2 64.788973487846206 1.4000000000000004 2 67.410145313122158 2.0011194501842562 2 83.798023777644261 1.4000000000000004 2 </DataArray>
<DataArray Name="forces" NumberOfComponents="3" format="ascii" type="Float32">-0.13816603984926534 -0.011251729572966411 0.0 0.042516163164793737 0.0043865110038595802 0.0 0.0 0.0 0.0 -0.0050524649421861134 -0.03759578929077196 0.0 0.020320732595620311 0.071383387188252267 0.0 -0.0012140141789654967 -0.062019293184149539 0.0 0.0006583972363870122 0.067517930075689736 0.0 -0.024603262168215255 -0.0091328616444300535 0.0 </DataArray>
<DataArray Name="radii" format="ascii" type="Float32">1.4000000000000004 1.4000000000000004 1.4000000000000004 1.4000000000000004 1.4000000000000004 1.4000000000000004 1.4000000000000004 1.4000000000000004 </DataArray>
</PointData>
<CellData/>
</Piece>
</UnstructuredGrid>
</VTKFile>
