<?xml version="1.0" ?>
<VTKFile byte_order="LittleEndian" type="UnstructuredGrid" version="0.1">
<UnstructuredGrid>
<Piece NumberOfCells="0" NumberOfPoints="137">
<Points>
<DataArray NumberOfComponents="3" format="ascii" type="Float32">0 0 0 6.6938540493465286 1.45512782846611 2 16.354106310424395 1.45512782846611 2 25.265338842488948 6.5392872151683239 2 32.789855741017007 1.45512782846611 2 36.810645553264095 10.64524599390224 2 43.811539811296996 3.6629566236152127 2 44.274188353432486 9.4817054178684952 2 53.498432012470545 1.45512782846611 2 54.252870276913129 6.0426116462755664 2 61.622811809040869 6.5068477246581553 2 71.515128989073403 1.45512782846611 2 73.165487006840891 10.094828370544128 2 76.216924300863454 6.1028471507445756 2 80.558124846500974 8.8592271014691146 2 87.541854538393679 4.2232439836808711 2 90.353924064345804 8.9520679337824625 2 94.255302190196304 6.1676743947366397 2 4.0664310480192238 1.45512782846611 2 13.979219965146546 1.45512782846611 2 23.374900795535613 1.45512782846611 2 33.467816415810027 11.143624842761749 2 37.752753791206381 1.45512782846611 2 41.854815811613982 8.2227948052482667 2 48.475738983278859 1.45512782846611 2 50.800807321278796 9.2244114011709204 2 57.926368862315613 8.7581754701663748 2 62.030381886721436 3.8621426377543129 2 69.533409919053241 10.319780037698557 2 72.161435291059618 5.8202109679709695 2 79.76416405051188 1.45512782846611 2 82.932687381737182 3.9559516591003172 2 85.167996081319515 9.1104409419999204 2 92.61078180671646 1.45512782846611 2 92.330051105362685 10.899664217636754 2 6.5278339635376748 7.1010642234828598 2 16.935281491648993 6.8584672397954618 2 24.44553164047371 3.9484321504580886 2 32.922370765338009 6.3345036717150602 2 39.475473611386327 9.5057464454736973 2 41.207984246918791 3.3733362991430704 2 48.593946211123814 8.1670672541028342 2 52.291561491255173 3.9980351315466436 2 56.009134414324286 1.45512782846611 2 65.529558273897521 9.0986271468248869 2 66.191502932930717 3.5546443612016771 2 75.683010980269344 11.406191628355671 2 78.362425087195589 10.411600447467032 2 78.639941339517364 4.7904624450317614 2 85.984059705267995 1.45512782846611 2 87.835468298233351 9.1500847258612801 2 94.702822817996449 1.45512782846611 2 5.4055338881060564 3.9975646845713761 2 14.133909720432902 7.2712105321051705 2 22.066281132168061 4.0223620930641992 2 35.355079690797837 6.0466346428175806 2 33.965702207298143 3.8145382368287875 2 45.355781129150863 1.45512782846611 2 45.693411624089286 4.9612002898808178 2 53.332471445694736 9.4255529208547575 2 57.386713080346013 3.7269147022116225 2 60.834920297368399 1.45512782846611 2 68.252449350934882 4.0674835566210765 2 72.567815209361825 3.4846628434397044 2 75.696103383359457 1.45512782846611 2 81.927462902169466 1.45512782846611 2 86.658677200825579 6.7156323443305981 2 89.239973254343354 6.5266669279849312 2 94.408042780713529 9.034353392246679 2 8.0140153061635253 3.8269240117615784 2 14.89799336463035 4.0098770724362716 2 22.532106707838331 6.7430332534415767 2 30.430745294120037 1.45512782846611 2 37.296393319075037 7.9765368539137205 2 42.715837245002135 1.45512782846611 2 41.890727978402545 10.999517844064391 2 54.88773801699331 3.7205857923040306 2 56.715029610640819 6.0551729789816067 2 62.941829798304923 9.1455464526986763 2 69.428024352848865 1.45512782846611 2 73.954254505493978 7.4596592160190669 2 74.537753886279873 4.2382867884840314 2 82.718648900055356 10.570748093345333 2 89.654731832071477 3.8610741225289362 2 92.413128104820686 7.9506031453317156 2 91.690858271880032 5.6829949444192662 2 2.6676578307776402 3.6764444828939915 2 11.627831715827254 1.4610506233836202 2 21.014932699725083 1.45512782846611 2 34.658101703293596 8.6359856065230716 2 36.411001131584001 3.5353044719216236 2 43.94082413343731 6.6501915157843996 2 49.727721835757031 3.6910881400093034 2 52.1808036148798 6.8564711310183277 2 56.130785655592277 11.053260261254481 2 64.15483038763233 3.8962875283576093 2 71.25706352824065 8.2466644667950515 2 70.383505898393054 3.9088418525414781 2 77.852143199837798 1.45512782846611 2 81.012775408185092 6.0791198070334103 2 82.906126452868889 7.7783857819292361 2 94.08554569930125 3.7861344594742117 2 94.94037096496433 11.990248815294063 2 9.2667088648299245 6.3549099472390473 2 17.359885686317824 4.0884270321639109 2 25.754847887454531 1.45512782846611 2 31.574503346898265 3.9316337771177645 2 39.733641843238573 6.6437581416084015 2 41.879080619918014 5.497051518505641 2 46.931209573506891 10.399127359078715 2 51.056012641938132 1.45512782846611 2 58.472350494405696 1.45512782846611 2 64.12606587486475 6.6149156632599251 2 67.360509197080717 1.45512782846611 2 73.221771234927331 12.857007756290598 2 76.188167711896355 8.7637860757279515 2 78.502790601989318 7.3585721046763846 2 88.10832575315662 1.45512782846611 2 89.491845049007168 11.517645697191016 2 96.618307957656427 1.45512782846611 2 3.8718113421796789 6.330594407373745 2 12.528422935670431 5.0372801312498741 2 19.689138554188027 3.7354896048847976 2 37.713626730734624 5.4835972650827678 2 35.196971600229354 1.45512782846611 2 47.089956434243632 3.150655891058443 2 46.233665004602891 7.6135853713017152 2 55.521911204694796 8.3512228296904798 2 59.151350618637863 6.3562707714484059 2 59.755890307342533 3.8681337583782986 2 69.431709822149244 6.3741469161560129 2 73.760815506813785 1.45512782846611 2 76.794797008066084 3.5811537918939256 2 80.588101872511302 3.6097313708872445 2 85.319956011087072 3.719214771999007 2 91.891342455243034 3.470355548470847 2 96.363465031022386 7.0302958991794346 2 </DataArray>
</Points>
<Cells>
<DataArray Name="connectivity" format="ascii" type="Int32">0</DataArray>
<DataArray Name="offsets" format="ascii" type="Int32">0</DataArray>
<DataArray Name="types" format="ascii" type="UInt8">1</DataArray>
</Cells>
<PointData>
<DataArray Name="Points" NumberOfComponents="3" format="ascii" type="Float32">0 0 0 6.6938540493465286 1.45512782846611 2 16.354106310424395 1.45512782846611 2 25.265338842488948 6.5392872151683239 2 32.789855741017007 1.45512782846611 2 36.810645553264095 10.64524599390224 2 43.811539811296996 3.6629566236152127 2 44.274188353432486 9.4817054178684952 2 53.498432012470545 1.45512782846611 2 54.252870276913129 6.0426116462755664 2 61.622811809040869 6.5068477246581553 2 71.515128989073403 1.45512782846611 2 73.165487006840891 10.094828370544128 2 76.216924300863454 6.1028471507445756 2 80.558124846500974 8.8592271014691146 2 87.541854538393679 4.2232439836808711 2 90.353924064345804 8.9520679337824625 2 94.255302190196304 6.1676743947366397 2 4.0664310480192238 1.45512782846611 2 13.979219965146546 1.45512782846611 2 23.374900795535613 1.45512782846611 2 33.467816415810027 11.143624842761749 2 37.752753791206381 1.45512782846611 2 41.854815811613982 8.2227948052482667 2 48.475738983278859 1.45512782846611 2 50.800807321278796 9.2244114011709204 2 57.926368862315613 8.7581754701663748 2 62.030381886721436 3.8621426377543129 2 69.533409919053241 10.319780037698557 2 72.161435291059618 5.8202109679709695 2 79.76416405051188 1.45512782846611 2 82.932687381737182 3.9559516591003172 2 85.167996081319515 9.1104409419999204 2 92.61078180671646 1.45512782846611 2 92.330051105362685 10.899664217636754 2 6.5278339635376748 7.1010642234828598 2 16.935281491648993 6.8584672397954618 2 24.44553164047371 3.9484321504580886 2 32.922370765338009 6.3345036717150602 2 39.475473611386327 9.5057464454736973 2 41.207984246918791 3.3733362991430704 2 48.593946211123814 8.1670672541028342 2 52.291561491255173 3.9980351315466436 2 56.009134414324286 1.45512782846611 2 65.529558273897521 9.0986271468248869 2 66.191502932930717 3.5546443612016771 2 75.683010980269344 11.406191628355671 2 78.362425087195589 10.411600447467032 2 78.639941339517364 4.7904624450317614 2 85.984059705267995 1.45512782846611 2 87.835468298233351 9.1500847258612801 2 94.702822817996449 1.45512782846611 2 5.4055338881060564 3.9975646845713761 2 14.133909720432902 7.2712105321051705 2 22.066281132168061 4.0223620930641992 2 35.355079690797837 6.0466346428175806 2 33.965702207298143 3.8145382368287875 2 45.355781129150863 1.45512782846611 2 45.693411624089286 4.9612002898808178 2 53.332471445694736 9.4255529208547575 2 57.386713080346013 3.7269147022116225 2 60.834920297368399 1.45512782846611 2 68.252449350934882 4.0674835566210765 2 72.567815209361825 3.4846628434397044 2 75.696103383359457 1.45512782846611 2 81.927462902169466 1.45512782846611 2 86.658677200825579 6.7156323443305981 2 89.239973254343354 6.5266669279849312 2 94.408042780713529 9.034353392246679 2 8.0140153061635253 3.8269240117615784 2 14.89799336463035 4.0098770724362716 2 22.532106707838331 6.7430332534415767 2 30.430745294120037 1.45512782846611 2 37.296393319075037 7.9765368539137205 2 42.715837245002135 1.45512782846611 2 41.890727978402545 10.999517844064391 2 54.88773801699331 3.7205857923040306 2 56.715029610640819 6.0551729789816067 2 62.941829798304923 9.1455464526986763 2 69.428024352848865 1.45512782846611 2 73.954254505493978 7.4596592160190669 2 74.537753886279873 4.2382867884840314 2 82.718648900055356 10.570748093345333 2 89.654731832071477 3.8610741225289362 2 92.413128104820686 7.9506031453317156 2 91.690858271880032 5.6829949444192662 2 2.6676578307776402 3.6764444828939915 2 11.627831715827254 1.4610506233836202 2 21.014932699725083 1.45512782846611 2 34.658101703293596 8.6359856065230716 2 36.411001131584001 3.5353044719216236 2 43.94082413343731 6.6501915157843996 2 49.727721835757031 3.6910881400093034 2 52.1808036148798 6.8564711310183277 2 56.130785655592277 11.053260261254481 2 64.15483038763233 3.8962875283576093 2 71.25706352824065 8.2466644667950515 2 70.383505898393054 3.9088418525414781 2 77.852143199837798 1.45512782846611 2 81.012775408185092 6.0791198070334103 2 82.906126452868889 7.7783857819292361 2 94.08554569930125 3.7861344594742117 2 94.94037096496433 11.990248815294063 2 9.2667088648299245 6.3549099472390473 2 17.359885686317824 4.0884270321639109 2 25.754847887454531 1.45512782846611 2 31.574503346898265 3.9316337771177645 2 39.733641843238573 6.6437581416084015 2 41.879080619918014 5.497051518505641 2 46.931209573506891 10.399127359078715 2 51.056012641938132 1.45512782846611 2 58.472350494405696 1.45512782846611 2 64.12606587486475 6.6149156632599251 2 67.360509197080717 1.45512782846611 2 73.221771234927331 12.857007756290598 2 76.188167711896355 8.7637860757279515 2 78.502790601989318 7.3585721046763846 2 88.10832575315662 1.45512782846611 2 89.491845049007168 11.517645697191016 2 96.618307957656427 1.45512782846611 2 3.8718113421796789 6.330594407373745 2 12.528422935670431 5.0372801312498741 2 19.689138554188027 3.7354896048847976 2 37.713626730734624 5.4835972650827678 2 35.196971600229354 1.45512782846611 2 47.089956434243632 3.150655891058443 2 46.233665004602891 7.6135853713017152 2 55.521911204694796 8.3512228296904798 2 59.151350618637863 6.3562707714484059 2 59.755890307342533 3.8681337583782986 2 69.431709822149244 6.3741469161560129 2 73.760815506813785 1.45512782846611 2 76.794797008066084 3.5811537918939256 2 80.588101872511302 3.6097313708872445 2 85.319956011087072 3.719214771999007 2 91.891342455243034 3.470355548470847 2 96.363465031022386 7.0302958991794346 2 </DataArray>
<DataArray Name="forces" NumberOfComponents="3" format="ascii" type="Float32">0 0 0 -0.060482734160359583 -0.22011497045574663 0.0 -0.0087215796483418664 -0.06398039191920743 0.0 -0.10930671656386387 0.081114269690713905 0.0 -0.0076744406731996673 -0.38943009390392691 0.0 -0.046821989510506076 0.20132102391749854 0.0 0.02751747489042522 0.086641952467848588 0.0 -0.00082774700387205913 0.20651039423136217 0.0 -0.021548850633914818 -0.30969848508535569 0.0 -0.024015011617739807 0.048044594445798477 0.0 0.066657083183524479 0.089351037989579107 0.0 -0.042604778211923655 -0.74898674326965164 0.0 0.071479089636027809 0.15127116505463217 0.0 0.033375571555595715 0.15317699765223167 0.0 0.045501155026311135 0.22336635129898796 0.0 -0.099401630136719321 0.060574762114634056 0.0 -0.10864793193182877 0.17496801773341714 0.0 -0.072906352851685785 0.12031022194389712 0.0 -0.06015852652062384 -0.27480509335823983 0.0 -0.041510777873626559 -0.18803962379917774 0.0 -0.045489735413060062 -0.20937552397474843 0.0 0.0032832684937910556 0.21456058603976447 0.0 0.015054317757969171 -0.61527891884622599 0.0 -0.0076328368136307492 0.20824236449197048 0.0 -0.041808244132317429 -0.86780300948576172 0.0 -0.037972546976924787 0.31846691233580898 0.0 -0.055468579285866432 0.17619432344810543 0.0 -0.049269146338864367 0.042608373447614804 0.0 -0.06724984632090901 0.25875204279794622 0.0 -0.056788258672265543 0.13389763005827615 0.0 0.036137110569937625 -0.56352395438137259 0.0 -0.050488503866427226 0.065234502008729059 0.0 0.0080215833310577078 0.1876728158438947 0.0 -0.040498745799640412 -0.86207865507755232 0.0 -0.061939678419701549 0.14331202130686346 0.0 0.069550171177357428 0.061220110881236502 0.0 0.018996770647092914 0.10435499937397483 0.0 -0.02036927843539748 0.039701878342226007 0.0 -0.022335229691849728 0.13092348516558877 0.0 -0.031412471251465408 0.23669842897081875 0.0 0.043486365577026925 0.076670226565601962 0.0 0.03011774743570711 0.12717570245168278 0.0 -0.025441849946212215 0.12687025137368518 0.0 -0.0084961661388316401 -0.56171535263907124 0.0 0.040135931402237972 0.16150955894452959 0.0 -0.058725054529340681 0.16372053152370147 0.0 0.019414893228024518 0.24322267768425293 0.0 0.014020760238423829 0.2227696342935612 0.0 0.018753586834594715 0.2006535797266914 0.0 0.10701414033248849 -0.49919973763227632 0.0 -0.063680155671352531 0.20469317701555195 0.0 -0.0516564727977884 -0.48368994295779211 0.0 -0.09148973272707335 0.024027759111343513 0.0 0.014208676162091996 0.14194290239280102 0.0 -0.0026492655580809821 0.083068225219737377 0.0 -0.0023640639429295951 0.12788033581416622 0.0 -0.0022712311103314786 0.084948155526023084 0.0 0.046825163492398791 -0.52058436009410358 0.0 -0.012356566401536893 0.1947165394596499 0.0 -0.016364728530580686 0.32328983564735009 0.0 -0.025004948112323122 0.07285261537191054 0.0 -0.028912121042287187 -0.42014191498910319 0.0 -0.012136640298236162 0.016610089383700843 0.0 0.023253948719975492 0.08656239142315858 0.0 -0.01843349021659374 -0.46450627178807458 0.0 0.051179837781302168 -0.47939099916519423 0.0 -0.047599650315754249 0.14368754862886673 0.0 -0.086350179514466968 0.11195176638072762 0.0 -0.045176599595424929 0.12603924559232488 0.0 -0.063993756770101801 0.12610307362881265 0.0 -0.077849472900505756 0.038242942631645321 0.0 -0.14618879402242957 0.16576621359763841 0.0 -0.025372754543831769 -0.25259103794687288 0.0 -0.039924851855093466 0.18156603122948933 0.0 0.042908722836996593 -0.76502516865082026 0.0 -0.010240575435937427 0.2179601672356907 0.0 -0.015408095730829852 0.041743998793025025 0.0 0.008012543298056729 0.12828500665297243 0.0 0.016468312200932402 0.14180533868875667 0.0 -0.06405545362252274 -0.29950531294441768 0.0 -0.014961976627160922 0.1204846862681441 0.0 -0.005958851392180442 0.13588382955644088 0.0 0.066696536477746801 0.23894608969758219 0.0 -0.05707033999947686 0.1012230037259757 0.0 -0.095134506711956529 0.17209625400035544 0.0 -0.086353824063538809 0.14143649779708856 0.0 -0.093961104701537124 0.1078891701875882 0.0 -0.084562409573720812 -0.12948347407062347 0.0 -0.032810154171024231 -0.35255502157825547 0.0 -0.045947995952123483 0.16237147688233844 0.0 0.011092477374986198 0.099479478156837775 0.0 -0.023478881822433351 0.1953280553374625 0.0 -0.016459037879556215 0.066510100162274544 0.0 0.00013159390818379135 0.28901446277033604 0.0 -0.0038138985284378243 0.13758057829310485 0.0 -0.06300431447616181 0.072821566933242959 0.0 -0.047414271741461678 0.20336795962432958 0.0 0.0039270765222830517 0.049685557733120611 0.0 -0.0064031558018094459 -0.48186727974661203 0.0 0.047641860786765591 0.15715557113749445 0.0 0.028563511398929042 0.21947440381466668 0.0 -0.021863700605599501 0.062988460333216686 0.0 -0.060930858227306019 0.17919385696789583 0.0 0.10768991954863513 0.073216274758702793 0.0 -0.050615882268077894 0.077383104617229304 0.0 -0.042731505066767685 -0.16918212063868321 0.0 -0.015486585200370384 0.084797929353965781 0.0 -0.011699331721511608 0.25674498956121722 0.0 -0.028439457765590592 0.14593490373115525 0.0 0.02606372988914827 0.17498590418908982 0.0 -0.01465029023431702 -0.34971494743899839 0.0 -0.014076018504405111 -0.51676889966713579 0.0 0.097714940553417465 0.13050710568583546 0.0 -0.090906757986636388 -0.56750306513603899 0.0 -0.043950478562124605 0.17821153858618047 0.0 0.0011033072978482716 0.19288470504988603 0.0 0.043904291494552689 0.20546994812037978 0.0 0.062438779018034143 -0.12959314901518645 0.0 -0.060272752590974109 0.21438517760833792 0.0 -0.023831440646760016 -0.16959720658316929 0.0 0.025537200676462979 0.10425350534636804 0.0 -0.068699352970807953 0.18954136268193331 0.0 -0.01590573439120424 0.11668207086510508 0.0 0.038471260543227581 0.13595533435050755 0.0 0.011571227743839618 -0.66252170340463334 0.0 -0.014878926961940125 0.14597899926023863 0.0 -0.00097683765863113524 0.18867427873206349 0.0 -0.087294193561211125 0.10727948167976259 0.0 0.031797095887518209 0.17874647758209633 0.0 -0.041366596061211056 0.093955869642795731 0.0 -0.042546093848040825 0.07069815343030203 0.0 -0.035891786358401817 -0.50936736179728381 0.0 0.018074503558536459 0.081547629081876571 0.0 -0.04120022166988517 0.075428155771291749 0.0 -0.10385708839080871 0.046840321706080268 0.0 -0.04112283165798325 0.10140189820710883 0.0 -0.022175354455000115 0.15233741311808055 0.0 </DataArray>
<DataArray Name="radii" format="ascii" type="Float32">0 1.45512782846611 1.45512782846611 1.45512782846611 1.45512782846611 1.45512782846611 1.45512782846611 1.45512782846611 1.45512782846611 1.45512782846611 1.45512782846611 1.45512782846611 1.45512782846611 1.45512782846611 1.45512782846611 1.45512782846611 1.45512782846611 1.45512782846611 1.45512782846611 1.45512782846611 1.45512782846611 1.45512782846611 1.45512782846611 1.45512782846611 1.45512782846611 1.45512782846611 1.45512782846611 1.45512782846611 1.45512782846611 1.45512782846611 1.45512782846611 1.45512782846611 1.45512782846611 1.45512782846611 1.45512782846611 1.45512782846611 1.45512782846611 1.45512782846611 1.45512782846611 1.45512782846611 1.45512782846611 1.45512782846611 1.45512782846611 1.45512782846611 1.45512782846611 1.45512782846611 1.45512782846611 1.45512782846611 1.45512782846611 1.45512782846611 1.45512782846611 1.45512782846611 1.45512782846611 1.45512782846611 1.45512782846611 1.45512782846611 1.45512782846611 1.45512782846611 1.45512782846611 1.45512782846611 1.45512782846611 1.45512782846611 1.45512782846611 1.45512782846611 1.45512782846611 1.45512782846611 1.45512782846611 1.45512782846611 1.45512782846611 1.45512782846611 1.45512782846611 1.45512782846611 1.45512782846611 1.45512782846611 1.45512782846611 1.45512782846611 1.45512782846611 1.45512782846611 1.45512782846611 1.45512782846611 1.45512782846611 1.45512782846611 1.45512782846611 1.45512782846611 1.45512782846611 1.45512782846611 1.45512782846611 1.45512782846611 1.45512782846611 1.45512782846611 1.45512782846611 1.45512782846611 1.45512782846611 1.45512782846611 1.45512782846611 1.45512782846611 1.45512782846611 1.45512782846611 1.45512782846611 1.45512782846611 1.45512782846611 1.45512782846611 1.45512782846611 1.45512782846611 1.45512782846611 1.45512782846611 1.45512782846611 1.45512782846611 1.45512782846611 1.45512782846611 1.45512782846611 1.45512782846611 1.45512782846611 1.45512782846611 1.45512782846611 1.45512782846611 1.45512782846611 1.45512782846611 1.45512782846611 1.45512782846611 1.45512782846611 1.45512782846611 1.45512782846611 1.45512782846611 1.45512782846611 1.45512782846611 1.45512782846611 1.45512782846611 1.45512782846611 1.45512782846611 1.45512782846611 1.45512782846611 1.45512782846611 1.45512782846611 1.45512782846611 1.45512782846611 1.45512782846611 </DataArray>
</PointData>
<CellData/>
</Piece>
</UnstructuredGrid>
</VTKFile>
