<?xml version="1.0" ?>
<VTKFile byte_order="LittleEndian" type="UnstructuredGrid" version="0.1">
<UnstructuredGrid>
<Piece NumberOfCells="0" NumberOfPoints="18">
<Points>
<DataArray NumberOfComponents="3" format="ascii" type="Float32">0 0 0 5.9000000000000004 1.25 2 15.792351556537616 1.25 2 27.707127477485592 1.25 2 32.723014153213519 1.25 2 35.227953461076211 1.25 2 42.122647860717201 1.25 2 48.200016744729943 1.25 2 53.44754715721097 1.25 2 55.949553355936416 1.25 2 60.950937911996277 1.25 2 71.686115627439165 1.25 2 74.186489598719888 1.25 2 76.686591056298752 1.25 2 79.792351556537625 1.25 2 88.734545956045835 1.25 2 93.695800409759769 1.25 2 96.373288745445237 1.25 2 </DataArray>
</Points>
<Cells>
<DataArray Name="connectivity" format="ascii" type="Int32">0</DataArray>
<DataArray Name="offsets" format="ascii" type="Int32">0</DataArray>
<DataArray Name="types" format="ascii" type="UInt8">1</DataArray>
</Cells>
<PointData>
<DataArray Name="Points" NumberOfComponents="3" format="ascii" type="Float32">0 0 0 5.9000000000000004 1.25 2 15.792351556537616 1.25 2 27.707127477485592 1.25 2 32.723014153213519 1.25 2 35.227953461076211 1.25 2 42.122647860717201 1.25 2 48.200016744729943 1.25 2 53.44754715721097 1.25 2 55.949553355936416 1.25 2 60.950937911996277 1.25 2 71.686115627439165 1.25 2 74.186489598719888 1.25 2 76.686591056298752 1.25 2 79.792351556537625 1.25 2 88.734545956045835 1.25 2 93.695800409759769 1.25 2 96.373288745445237 1.25 2 </DataArray>
<DataArray Name="forces" NumberOfComponents="3" format="ascii" type="Float32">0 0 0 0.0 0.0 0.0 0.0 0.0 0.0 0.0 0.0 0.0 0.0 0.0 0.0 0.0 0.0 0.0 0.0 0.0 0.0 0.0 0.0 0.0 0.0 0.0 0.0 0.0 0.0 0.0 0.0 0.0 0.0 0.0 0.0 0.0 0.0 0.0 0.0 0.0 0.0 0.0 0.0 0.0 0.0 -0.036950977828311693 0.0 0.0 -0.071160183208675676 0.0 0.0 0.047871437763433278 0.0 0.0 </DataArray>
<DataArray Name="radii" format="ascii" type="Float32">0 1.25 1.25 1.25 1.25 1.25 1.25 1.25 1.25 1.25 1.25 1.25 1.25 1.25 1.25 1.25 1.25 1.25 </DataArray>
</PointData>
<CellData/>
</Piece>
</UnstructuredGrid>
</VTKFile>
