<?xml version="1.0" ?>
<VTKFile byte_order="LittleEndian" type="UnstructuredGrid" version="0.1">
<UnstructuredGrid>
<Piece NumberOfCells="0" NumberOfPoints="16">
<Points>
<DataArray NumberOfComponents="3" format="ascii" type="Float32">1.2508657626710002 4.2752273052463314 2 10.252252670435212 1.2508657626710002 2 17.91125394421119 1.2508657626710002 2 39.38705713567068 1.2508657626710002 2 50.246162706474323 4.916153546072052 2 63.016117864721473 1.2508657626710002 2 66.989037768283467 6.0921895057482631 2 83.557432317093188 1.2832970327974742 2 1.2508657626710002 1.2508657626710002 2 10.870119479319477 3.713332335040993 2 19.019522138680777 4.5543792396109524 2 38.641597039972631 3.0752020196265168 2 47.865059505363931 4.7421901453068109 2 65.338295215058295 1.2508657626710002 2 66.038152593601467 4.1228046577806419 2 84.160207578182906 3.9496619603124494 2 </DataArray>
</Points>
<Cells>
<DataArray Name="connectivity" format="ascii" type="Int32">0</DataArray>
<DataArray Name="offsets" format="ascii" type="Int32">0</DataArray>
<DataArray Name="types" format="ascii" type="UInt8">1</DataArray>
</Cells>
<PointData>
<DataArray Name="Points" NumberOfComponents="3" format="ascii" type="Float32">1.2508657626710002 4.2752273052463314 2 10.252252670435212 1.2508657626710002 2 17.91125394421119 1.2508657626710002 2 39.38705713567068 1.2508657626710002 2 50.246162706474323 4.916153546072052 2 63.016117864721473 1.2508657626710002 2 66.989037768283467 6.0921895057482631 2 83.557432317093188 1.2832970327974742 2 1.2508657626710002 1.2508657626710002 2 10.870119479319477 3.713332335040993 2 19.019522138680777 4.5543792396109524 2 38.641597039972631 3.0752020196265168 2 47.865059505363931 4.7421901453068109 2 65.338295215058295 1.2508657626710002 2 66.038152593601467 4.1228046577806419 2 84.160207578182906 3.9496619603124494 2 </DataArray>
<DataArray Name="forces" NumberOfComponents="3" format="ascii" type="Float32">-0.11179928212996354 0.097832931771578632 0.0 -0.056686463780372065 -0.35712047207113051 0.0 0.058242397565228921 -0.24241288717949747 0.0 0.038371907873648914 -0.77927344263179088 0.0 -0.059505851328830572 0.17558358162392995 0.0 -0.0093449349719942343 -0.23276813876510155 0.0 0.028798142741840005 0.23486762930045349 0.0 -0.030858034846748095 0.045337302807798352 0.0 -0.12865234739863171 -0.11022078713580771 0.0 -0.10918594278155319 -0.0092903640386459777 0.0 0.16186602906650263 0.10264364479994863 0.0 0.066879423018938011 0.043151661180508005 0.0 -0.03196599004892417 0.07668148956465097 0.0 -0.060524211107180065 -0.47042750910951825 0.0 0.0099030663775294125 0.21737657410507064 0.0 0.087006739398165167 0.18332635741416087 0.0 </DataArray>
<DataArray Name="radii" format="ascii" type="Float32">1.2508657626710002 1.2508657626710002 1.2508657626710002 1.2508657626710002 1.2508657626710002 1.2508657626710002 1.2508657626710002 1.2508657626710002 1.2508657626710002 1.2508657626710002 1.2508657626710002 1.2508657626710002 1.2508657626710002 1.2508657626710002 1.2508657626710002 1.2508657626710002 </DataArray>
</PointData>
<CellData/>
</Piece>
</UnstructuredGrid>
</VTKFile>
