<?xml version="1.0" ?>
<VTKFile byte_order="LittleEndian" type="UnstructuredGrid" version="0.1">
<UnstructuredGrid>
<Piece NumberOfCells="0" NumberOfPoints="193">
<Points>
<DataArray NumberOfComponents="3" format="ascii" type="Float32">0 0 0 32.090047474833874 11.190087718202774 2 34.420029516783572 16.345427547640444 2 62.900098459475608 1 2 67.609379131036931 6.4563433625940441 2 91.485160140169768 4.2105251263516301 2 99.0 1 2 33.97920880876223 1 2 36.276844207153772 2.1570929658069646 2 61.692701178658375 4.6372548186552498 2 65.788464016452949 9.1767934911187634 2 97.773244135801988 14.310973913841922 2 93.925986549768595 6.4985260175132566 2 36.358818071278662 7.9215256134934071 2 39.58319221070505 1 2 63.379086746735744 9.341132041602064 2 65.338282056203767 3.3066775889635576 2 91.027768955969023 6.9703307381019339 2 97.154480837543744 7.0951050806111322 2 31.070743723031928 10.067042597761349 2 34.481093765085852 5.7878315419984814 2 61.857494355130044 8.7065040614575349 2 63.577418511282971 12.948932080083383 2 93.836469061202621 14.871896827652341 2 92.226874495376123 5.61870132503166 2 35.808229000884964 9.0272421456196597 2 34.661353588169831 14.511769008938543 2 61.499374409137488 3.0273615959365161 2 65.97874508080028 1 2 90.067043063540169 5.3387876505864744 2 98.749112942530374 7.1376334188752368 2 33.028296131261094 5.8615896611798322 2 36.640060834863903 4.5789121985701247 2 58.900646275770193 1 2 65.901682277106246 4.9674242513553377 2 93.836863763796401 9.4867028185738409 2 99.0 8.6855124829438353 2 37.513578492107293 5.4489048970873828 2 40.787773921501056 3.7946463935898627 2 64.482010166339123 17.146071944844348 2 63.432503932443304 5.330055849566695 2 90.439595513499484 13.961419276857372 2 95.243066054488111 1 2 29.064107296072049 7.3461034489278205 2 35.012804263136651 1 2 61.89297195006025 6.3698166359891291 2 63.915929022357176 8.1768531527966459 2 90.444467079403239 15.762436556582454 2 93.649603798138486 3.1211027422117072 2 33.751447339331691 11.072878780562521 2 36.273199987806279 14.266736703724417 2 63.052593873930832 2.6073168674722664 2 67.515595854696286 4.8036375095541031 2 92.207082211431725 1 2 96.332618980953086 2.0559485903654844 2 31.923512692621792 1 2 37.02357628443103 3.5712640814308778 2 59.87561917315923 4.1343694304613461 2 66.431004403886263 7.1113509340915897 2 96.861945925349943 10.470374502224262 2 93.788567495580409 7.9216439163313934 2 37.225361396319556 9.6643452443052649 2 38.521267652098565 1 2 62.602200126755605 14.560872036056198 2 63.861005993790606 1 2 92.35046896671534 8.3230206781253528 2 97.825979861740393 4.8484653723772988 2 31.545372791248866 8.7256266111484564 2 33.268297143571537 2.4912718841010268 2 62.292441151759562 11.849353586354693 2 64.899732660107517 10.528497612018308 2 91.937239837728839 14.665337634227322 2 92.545991842139557 3.7881541578992328 2 33.947340321436918 7.1835995820029384 2 36.25534524616176 10.60416316901747 2 60.140947995192541 1 2 67.281794377700265 3.6703350019754897 2 88.818717844769012 7.8229857767598396 2 97.689594769526892 3.2548807482222704 2 30.615427557747662 7.5682859058652916 2 35.18227432637844 7.3462804156453219 2 59.406921953786721 2.9616556806780281 2 64.873737891939584 6.502647320890949 2 94.223536657165397 11.729668216120237 2 95.31594333637166 7.9492129046206452 2 38.20914499211429 3.8506456343556312 2 41.998961435281103 5.0421955262956279 2 63.014345203995241 17.658085758821695 2 64.73634376822433 4.962265395566642 2 93.103156068850822 11.002977257283792 2 96.467946442619223 3.4394385446200886 2 29.462300629373683 6.1190209918427696 2 35.621365055535648 2.9098587088015067 2 63.358735559659777 4.1626500217243496 2 63.098964802082676 7.0814047744466233 2 89.084458979282587 14.657877066316408 2 93.061901961904539 2.0789383357601334 2 32.87087095994724 12.623713227133743 2 36.124577528054253 15.815819643229217 2 62.187280667518586 1.9130770138500282 2 68.937623433383948 6.11568785958376 2 90.417780335749896 3.6982473387985944 2 98.302410052586708 2.0841073936408163 2 34.469543397958631 2.5315431476099195 2 37.470410941965348 1 2 60.805991409621782 4.6619408552412782 2 65.768887075057322 8.0884887008136399 2 97.410778798449257 12.415891061273362 2 94.929990113934721 5.6049815470493662 2 37.455413194380128 8.5561711854170568 2 39.400144347562282 2.5437376165499654 2 63.661785077772279 10.568683955466648 2 66.281602644685421 2.6612744694467971 2 90.971398237089915 8.2762256817968698 2 95.812095760313383 6.5410781353916541 2 29.838569913782361 10.343016106076304 2 34.240426393808896 4.068508339092447 2 62.380887665759261 9.9228355125024148 2 63.41334518363626 11.559308624043368 2 95.890704146249277 14.91528799292433 2 91.076150093602394 5.4950427210374464 2 34.793044948456682 10.020686009663814 2 34.167826152897987 12.932876269228709 2 60.745482362482122 1.7946564302212387 2 64.913851765778801 2.1820173161832175 2 89.849939748283049 6.7481255966022289 2 99.0 5.6111871053821911 2 32.606652945038533 7.4143528007977064 2 35.670772326212287 5.5272833643672605 2 59.494451073245713 2.0421128749592241 2 65.805376485482213 6.1019401109447831 2 95.320053723242694 9.7296584121906555 2 98.465444527033497 10.249314776516064 2 37.450815925033247 6.7496063085347684 2 41.045445067799122 4.7124617286592159 2 63.334218245908112 15.985856285837233 2 63.839123345842495 6.3035102897412001 2 91.022589047315492 12.596494767676107 2 94.846367850912912 2.5161250087254081 2 29.852814240910142 8.6570970255786133 2 36.149436444663145 1 2 62.363526849540634 5.451069718531528 2 64.613105689925604 9.2941871329675898 2 91.980538600443694 16.617984079030869 2 94.279493619044203 4.2750760397589289 2 32.840325649485379 9.9439601560232056 2 35.718973578061359 12.949413295351334 2 63.931686781807478 2.5177528224738706 2 68.535931120275961 5.182528056690999 2 91.677287004446356 2.7661996230012154 2 97.119125076800941 1 2 32.967308090664375 1 2 38.487797032629388 2.5662471366782613 2 60.250971026059581 5.5722505689537591 2 67.038513718334528 5.6945588649559253 2 95.776044018275755 11.609737746362056 2 92.40285717417386 6.8952703179209998 2 38.121736414174343 10.443335333640944 2 37.473618309049677 2.2867614901403788 2 62.367815160330643 13.119702251205492 2 64.888788911092249 1 2 92.28119492684236 9.6695611372592847 2 96.714434707651961 5.3138440939391556 2 33.064036502527451 8.7130527450895965 2 33.244527006749223 4.6090225200264259 2 60.884174127461435 12.224837985288499 2 64.67372149529551 11.963039579314211 2 92.835763448586576 13.054727980696507 2 93.220107360943913 5.0736015454362926 2 34.331263809896868 8.7413409727339886 2 35.109313895990553 11.588576576704337 2 61.53659537121041 1 2 66.218727733118939 4.0268537720441788 2 89.719297624226996 8.2444954698891824 2 99.0 3.7284232935107067 2 31.591364906856146 6.8279485558410027 2 36.283210758592773 6.4463021032960093 2 60.654665023208338 3.087670828019542 2 64.784063190158761 7.6437813914337172 2 94.990829383433393 13.312555574677075 2 96.983751064581696 8.7431566035492931 2 39.656536361153051 3.7737577632792383 2 41.554888233714657 6.0648871671288402 2 62.158006448582363 19.099206204000588 2 64.392840921943716 3.8554972026471566 2 91.891440139388607 11.572933347049029 2 95.570643893469125 4.1618715028484319 2 28.146810263451588 5.2657615170908842 2 35.346835699477175 4.1978776540830109 2 62.431903824047019 3.6904583864761236 2 62.622752027528051 8.0567650029245161 2 87.887687670786306 14.107633620783632 2 93.774418618118887 1 2 </DataArray>
</Points>
<Cells>
<DataArray Name="connectivity" format="ascii" type="Int32">0</DataArray>
<DataArray Name="offsets" format="ascii" type="Int32">0</DataArray>
<DataArray Name="types" format="ascii" type="UInt8">1</DataArray>
</Cells>
<PointData>
<DataArray Name="Points" NumberOfComponents="3" format="ascii" type="Float32">0 0 0 32.090047474833874 11.190087718202774 2 34.420029516783572 16.345427547640444 2 62.900098459475608 1 2 67.609379131036931 6.4563433625940441 2 91.485160140169768 4.2105251263516301 2 99.0 1 2 33.97920880876223 1 2 36.276844207153772 2.1570929658069646 2 61.692701178658375 4.6372548186552498 2 65.788464016452949 9.1767934911187634 2 97.773244135801988 14.310973913841922 2 93.925986549768595 6.4985260175132566 2 36.358818071278662 7.9215256134934071 2 39.58319221070505 1 2 63.379086746735744 9.341132041602064 2 65.338282056203767 3.3066775889635576 2 91.027768955969023 6.9703307381019339 2 97.154480837543744 7.0951050806111322 2 31.070743723031928 10.067042597761349 2 34.481093765085852 5.7878315419984814 2 61.857494355130044 8.7065040614575349 2 63.577418511282971 12.948932080083383 2 93.836469061202621 14.871896827652341 2 92.226874495376123 5.61870132503166 2 35.808229000884964 9.0272421456196597 2 34.661353588169831 14.511769008938543 2 61.499374409137488 3.0273615959365161 2 65.97874508080028 1 2 90.067043063540169 5.3387876505864744 2 98.749112942530374 7.1376334188752368 2 33.028296131261094 5.8615896611798322 2 36.640060834863903 4.5789121985701247 2 58.900646275770193 1 2 65.901682277106246 4.9674242513553377 2 93.836863763796401 9.4867028185738409 2 99.0 8.6855124829438353 2 37.513578492107293 5.4489048970873828 2 40.787773921501056 3.7946463935898627 2 64.482010166339123 17.146071944844348 2 63.432503932443304 5.330055849566695 2 90.439595513499484 13.961419276857372 2 95.243066054488111 1 2 29.064107296072049 7.3461034489278205 2 35.012804263136651 1 2 61.89297195006025 6.3698166359891291 2 63.915929022357176 8.1768531527966459 2 90.444467079403239 15.762436556582454 2 93.649603798138486 3.1211027422117072 2 33.751447339331691 11.072878780562521 2 36.273199987806279 14.266736703724417 2 63.052593873930832 2.6073168674722664 2 67.515595854696286 4.8036375095541031 2 92.207082211431725 1 2 96.332618980953086 2.0559485903654844 2 31.923512692621792 1 2 37.02357628443103 3.5712640814308778 2 59.87561917315923 4.1343694304613461 2 66.431004403886263 7.1113509340915897 2 96.861945925349943 10.470374502224262 2 93.788567495580409 7.9216439163313934 2 37.225361396319556 9.6643452443052649 2 38.521267652098565 1 2 62.602200126755605 14.560872036056198 2 63.861005993790606 1 2 92.35046896671534 8.3230206781253528 2 97.825979861740393 4.8484653723772988 2 31.545372791248866 8.7256266111484564 2 33.268297143571537 2.4912718841010268 2 62.292441151759562 11.849353586354693 2 64.899732660107517 10.528497612018308 2 91.937239837728839 14.665337634227322 2 92.545991842139557 3.7881541578992328 2 33.947340321436918 7.1835995820029384 2 36.25534524616176 10.60416316901747 2 60.140947995192541 1 2 67.281794377700265 3.6703350019754897 2 88.818717844769012 7.8229857767598396 2 97.689594769526892 3.2548807482222704 2 30.615427557747662 7.5682859058652916 2 35.18227432637844 7.3462804156453219 2 59.406921953786721 2.9616556806780281 2 64.873737891939584 6.502647320890949 2 94.223536657165397 11.729668216120237 2 95.31594333637166 7.9492129046206452 2 38.20914499211429 3.8506456343556312 2 41.998961435281103 5.0421955262956279 2 63.014345203995241 17.658085758821695 2 64.73634376822433 4.962265395566642 2 93.103156068850822 11.002977257283792 2 96.467946442619223 3.4394385446200886 2 29.462300629373683 6.1190209918427696 2 35.621365055535648 2.9098587088015067 2 63.358735559659777 4.1626500217243496 2 63.098964802082676 7.0814047744466233 2 89.084458979282587 14.657877066316408 2 93.061901961904539 2.0789383357601334 2 32.87087095994724 12.623713227133743 2 36.124577528054253 15.815819643229217 2 62.187280667518586 1.9130770138500282 2 68.937623433383948 6.11568785958376 2 90.417780335749896 3.6982473387985944 2 98.302410052586708 2.0841073936408163 2 34.469543397958631 2.5315431476099195 2 37.470410941965348 1 2 60.805991409621782 4.6619408552412782 2 65.768887075057322 8.0884887008136399 2 97.410778798449257 12.415891061273362 2 94.929990113934721 5.6049815470493662 2 37.455413194380128 8.5561711854170568 2 39.400144347562282 2.5437376165499654 2 63.661785077772279 10.568683955466648 2 66.281602644685421 2.6612744694467971 2 90.971398237089915 8.2762256817968698 2 95.812095760313383 6.5410781353916541 2 29.838569913782361 10.343016106076304 2 34.240426393808896 4.068508339092447 2 62.380887665759261 9.9228355125024148 2 63.41334518363626 11.559308624043368 2 95.890704146249277 14.91528799292433 2 91.076150093602394 5.4950427210374464 2 34.793044948456682 10.020686009663814 2 34.167826152897987 12.932876269228709 2 60.745482362482122 1.7946564302212387 2 64.913851765778801 2.1820173161832175 2 89.849939748283049 6.7481255966022289 2 99.0 5.6111871053821911 2 32.606652945038533 7.4143528007977064 2 35.670772326212287 5.5272833643672605 2 59.494451073245713 2.0421128749592241 2 65.805376485482213 6.1019401109447831 2 95.320053723242694 9.7296584121906555 2 98.465444527033497 10.249314776516064 2 37.450815925033247 6.7496063085347684 2 41.045445067799122 4.7124617286592159 2 63.334218245908112 15.985856285837233 2 63.839123345842495 6.3035102897412001 2 91.022589047315492 12.596494767676107 2 94.846367850912912 2.5161250087254081 2 29.852814240910142 8.6570970255786133 2 36.149436444663145 1 2 62.363526849540634 5.451069718531528 2 64.613105689925604 9.2941871329675898 2 91.980538600443694 16.617984079030869 2 94.279493619044203 4.2750760397589289 2 32.840325649485379 9.9439601560232056 2 35.718973578061359 12.949413295351334 2 63.931686781807478 2.5177528224738706 2 68.535931120275961 5.182528056690999 2 91.677287004446356 2.7661996230012154 2 97.119125076800941 1 2 32.967308090664375 1 2 38.487797032629388 2.5662471366782613 2 60.250971026059581 5.5722505689537591 2 67.038513718334528 5.6945588649559253 2 95.776044018275755 11.609737746362056 2 92.40285717417386 6.8952703179209998 2 38.121736414174343 10.443335333640944 2 37.473618309049677 2.2867614901403788 2 62.367815160330643 13.119702251205492 2 64.888788911092249 1 2 92.28119492684236 9.6695611372592847 2 96.714434707651961 5.3138440939391556 2 33.064036502527451 8.7130527450895965 2 33.244527006749223 4.6090225200264259 2 60.884174127461435 12.224837985288499 2 64.67372149529551 11.963039579314211 2 92.835763448586576 13.054727980696507 2 93.220107360943913 5.0736015454362926 2 34.331263809896868 8.7413409727339886 2 35.109313895990553 11.588576576704337 2 61.53659537121041 1 2 66.218727733118939 4.0268537720441788 2 89.719297624226996 8.2444954698891824 2 99.0 3.7284232935107067 2 31.591364906856146 6.8279485558410027 2 36.283210758592773 6.4463021032960093 2 60.654665023208338 3.087670828019542 2 64.784063190158761 7.6437813914337172 2 94.990829383433393 13.312555574677075 2 96.983751064581696 8.7431566035492931 2 39.656536361153051 3.7737577632792383 2 41.554888233714657 6.0648871671288402 2 62.158006448582363 19.099206204000588 2 64.392840921943716 3.8554972026471566 2 91.891440139388607 11.572933347049029 2 95.570643893469125 4.1618715028484319 2 28.146810263451588 5.2657615170908842 2 35.346835699477175 4.1978776540830109 2 62.431903824047019 3.6904583864761236 2 62.622752027528051 8.0567650029245161 2 87.887687670786306 14.107633620783632 2 93.774418618118887 1 2 </DataArray>
<DataArray Name="forces" NumberOfComponents="3" format="ascii" type="Float32">0 0 0 -0.025994018406202135 0.054895984229126449 0.0 -0.11412606266430333 0.23558952765631663 0.0 -0.01547294218518025 -1.1761528588668713 0.0 -0.091521009932678088 0.068841344383404168 0.0 0.18844193801178716 0.10994371567361619 0.0 0.4959062312359328 -0.58808278291484672 0.0 0.054393737845859214 -0.68150006662398366 0.0 -0.11617784955501853 0.03246664395443237 0.0 0.086963977839194018 -0.0071543695426616871 0.0 -0.11433772984487681 0.089686919788662972 0.0 0.036815977475546303 0.065937572318087098 0.0 0.12163541029520711 0.17080537944599286 0.0 -0.18640448818719102 0.028585554452259854 0.0 -0.15386638766673932 -1.1360248116729998 0.0 0.093184314243752564 0.012625752637528076 0.0 -0.11205148310120783 0.066663758964894404 0.0 0.15630219604261045 0.050154256603719485 0.0 0.17214013304864759 0.018437325730472076 0.0 0.07164897500009143 0.1210636657046443 0.0 -0.075854804546155508 0.0017017057947926739 0.0 0.15702741793304531 0.067616710800199931 0.0 -0.024540888031144348 0.23646322919740459 0.0 0.030686660719427494 0.046435067027379207 0.0 0.20108414036046651 0.12225168917620682 0.0 -0.14791137830340512 0.11055511097189702 0.0 -0.051269971011100798 0.23855646508182352 0.0 0.084410966155485267 -0.017548599527870301 0.0 -0.18316921098884054 -1.2836318274234779 0.0 0.17961653508607178 0.032431534785984928 0.0 0.25521859033321814 0.028195476101960826 0.0 -0.010728063406685223 0.047792808262247993 0.0 -0.18167416536428083 0.065217517407440473 0.0 0.045001854734403213 -1.3392017541394199 0.0 -0.16466779666911927 0.036437225771160264 0.0 0.17750512959574105 0.089352939387280256 0.0 0.19938618315756249 0.092005479632823239 0.0 -0.17165261850269409 0.06207999788287677 0.0 -0.0072293442555166898 0.12900494337698404 0.0 0.032982831174390936 0.39487599630518122 0.0 0.06775185777945314 -0.049256555624859408 0.0 0.23561916936501895 0.27698122026228861 0.0 0.17213046061425485 -0.75287695528285681 0.0 -0.15491475316513648 0.19055822357354096 0.0 0.019993137722739363 -0.53836885924797451 0.0 0.11266719847892434 0.02707084870916418 0.0 0.0032852769062077236 0.042761231897669998 0.0 0.25083776750201259 0.10455162013066965 0.0 0.091321989082873103 0.024194470411824296 0.0 -0.11277016884459534 0.29438006752853874 0.0 -0.11139179867953505 0.17910671845599202 0.0 -0.010412094610600386 -0.026307458094472769 0.0 -0.091131551673241107 0.086953309005999568 0.0 0.249396213850129 -1.0886482325463327 0.0 0.12727770294508506 0.01808123593698352 0.0 0.070533754501328927 -0.76172024923212911 0.0 -0.13215782158961201 0.040499492310587568 0.0 0.081086117008273728 0.0034863352953706794 0.0 -0.037037467255079393 0.033816537088948592 0.0 0.15334165271061878 0.13781447710722805 0.0 0.17091703301873232 0.15835894706015544 0.0 -0.19639273687026099 0.13230919272261488 0.0 -0.12983547047364094 -0.95985349847336521 0.0 0.00025935690417362711 0.21111270088067163 0.0 -0.062425495886119453 -1.0062214063835111 0.0 0.15243080422015562 0.057364445396958508 0.0 0.028632857697370784 0.059816619892438749 0.0 -0.023697121418599452 0.062700595130837103 0.0 0.020565218158118431 0.0082293565408816938 0.0 0.068127986677048002 0.11779913795224337 0.0 0.033768550301989317 0.11229133340706365 0.0 0.29362531037384387 0.13923937941184902 0.0 0.13656387834907868 0.077097117231370749 0.0 -0.05025236241283447 0.0011401355231995258 0.0 -0.14615421348034907 0.066453247987216191 0.0 0.035537763004809708 -1.4683546095567666 0.0 -0.086723175452143919 0.074125865447760564 0.0 0.16664506979227456 0.2104995952532438 0.0 -0.029246328086248163 0.0072564511545492871 0.0 -0.10281237986274805 0.0051810228700181482 0.0 -0.11811949885823936 0.038316381711102132 0.0 0.16915004899249186 -0.081101495570339341 0.0 -0.078628528107135276 0.0010961770225177414 0.0 0.065305116323402357 0.13040655437337187 0.0 0.16481430247099593 0.19569384035313414 0.0 -0.21983603444348859 -0.0064334090390124506 0.0 -0.12112238735433734 0.12859629900452618 0.0 0.11795277818626444 0.33180590700974971 0.0 -0.028062426841436117 0.095376583397983161 0.0 0.1307762987374782 0.012161817645514328 0.0 0.035888837623229475 0.11785487898204439 0.0 0.054220640762367323 0.1423481394456689 0.0 -0.091216230690998684 0.01090512813598421 0.0 0.047778666734873965 -0.055649344280101876 0.0 -0.0053530578814225405 0.019163293144263571 0.0 0.10501896096499952 0.2836552413197595 0.0 0.24351645938589844 0.0043301322931188491 0.0 -0.075419608828703577 0.22442051039500538 0.0 -0.11951699491644416 0.26871448327134528 0.0 0.011687243382955698 0.029461769491067158 0.0 -0.11251774698790948 0.11639641439161873 0.0 0.25825055317802376 0.0081152714922712033 0.0 0.167223003721091 0.06477769750661555 0.0 -0.043747859648697832 -0.023942880588107521 0.0 -0.1021351657571455 -1.0530772545341684 0.0 0.087849049301686785 -0.0088856089786056441 0.0 -0.023079165388415368 -0.037274754406442623 0.0 0.14620869875290443 0.0082196970689383808 0.0 0.063763079958000818 -0.017131967044094532 0.0 -0.23392499390635393 0.13590448656179185 0.0 -0.11503514157791886 0.143088795402467 0.0 0.043074446597810623 0.051679814702910443 0.0 -0.11285741973907505 0.081507157555711029 0.0 0.20223725502765022 0.10897029323546786 0.0 -0.026310237976627515 0.22056692560248331 0.0 0.049651429867899485 0.3476321187619319 0.0 -0.037755304659741862 0.0016920975382385128 0.0 0.09123024534759927 0.048016904509014566 0.0 0.10175167322079803 0.10764505496346152 0.0 0.058225419015051356 0.15151154342000128 0.0 0.17268067772838872 0.059245993043593424 0.0 -0.28897690972296941 0.087361290516427326 0.0 -0.091378180519075369 0.20166114526809259 0.0 0.073790008954438352 -0.087851763214643941 0.0 -0.055631366833026261 0.028240412014208516 0.0 0.18207522244218399 0.157165314411502 0.0 0.57806240409500698 -0.0048484709116092817 0.0 -0.010538202255990226 0.080208147188475021 0.0 -0.17039700945505609 0.046481414923850384 0.0 0.093303733695961011 0.0059421117797424094 0.0 -0.010258310055080169 0.16218844274445687 0.0 0.15390784853577674 0.14055349356674493 0.0 0.26459800962335006 0.27774121992446188 0.0 -0.11645552216283728 0.067406339975569246 0.0 -0.15570435667539922 0.1438227572141868 0.0 0.066560189100510425 0.26636288290515975 0.0 -0.082744275658088479 0.072744343430989011 0.0 0.27541606759673498 0.25986398743589689 0.0 0.14317292155533784 0.013493920583101018 0.0 0.060292484719105324 0.23784598836182086 0.0 -0.007855546189662832 -0.95118064144268377 0.0 0.029119104672822457 -0.01303078637024277 0.0 0.023136797010266753 0.071251784360319537 0.0 0.21269541137941678 0.16603431756081094 0.0 0.081230156314426316 -0.0083937005779524121 0.0 0.11479120346301587 0.021431438332634396 0.0 -0.19457732016093657 0.19879998458865267 0.0 -0.017999704271084369 -0.008619213714203898 0.0 -0.059841120612711574 0.064909822775530507 0.0 0.28652014086710903 0.045998757868303042 0.0 0.12498571377463508 -0.81977396369505406 0.0 0.065541611401809308 -0.61471470965192732 0.0 -0.16321336447605059 -0.10134308859407243 0.0 0.17355986956683278 0.014126757815691726 0.0 -0.083545249973717831 -0.00075903623780121388 0.0 0.048921968111103394 0.1462620894420803 0.0 0.16497000607041146 0.088990474293295804 0.0 -0.093723608254393617 0.1326414483123356 0.0 -0.15097913299196875 0.045738815816401601 0.0 -0.014221290746307957 0.05834288160192988 0.0 -0.16166381581769557 -1.069380285050419 0.0 0.19695622710059557 0.06682502286791038 0.0 -0.02439646194549322 0.10506195362593299 0.0 -0.024199910026783011 0.031503530438927854 0.0 -0.00057817553796479793 0.0034604135863740559 0.0 -0.056433101367912519 0.12816972951886019 0.0 -0.054622090566392112 0.16975533157569653 0.0 0.28079115960536905 0.14938068826279019 0.0 0.15054952631234225 0.065961918953362605 0.0 -0.0050096361601195127 -0.028372494471485394 0.0 -0.062373726085713593 0.077005365068704257 0.0 0.080612252350283686 -1.3322246180118107 0.0 -0.04677511507055962 0.040740707975562035 0.0 0.23028747910701095 0.17767496991813875 0.0 0.92869743656111858 0.017667699130629183 0.0 0.024925136339926324 0.12999548210123163 0.0 -0.12039738135970779 0.04431676614909269 0.0 0.12884350621822788 0.01593991791812234 0.0 -0.044760725733552838 0.050821202278553246 0.0 0.0010925962605135911 0.14639787260580436 0.0 0.17718927348437163 0.10951400764946634 0.0 -0.12877130137874762 -0.037431221546500776 0.0 -0.14280182175202266 0.14166897189503802 0.0 0.054013408588583611 0.27808002763425255 0.0 -0.017396716292905418 0.0046769140017744234 0.0 0.19821602665548174 0.18345649997378755 0.0 0.02454424829732893 0.0010111138777949003 0.0 0.17369310571955948 0.14568424291153084 0.0 -0.087175522356195967 -0.020200458372432006 0.0 0.063773257580048731 0.025680790561532503 0.0 0.076589223361894221 -0.0079826402301826083 0.0 0.10840803168934193 0.30667447639545764 0.0 0.20966756006541137 -0.70038874858191913 0.0 </DataArray>
<DataArray Name="radii" format="ascii" type="Float32">0 1 1 1 1 1 1 1 1 1 1 1 1 1 1 1 1 1 1 1 1 1 1 1 1 1 1 1 1 1 1 1 1 1 1 1 1 1 1 1 1 1 1 1 1 1 1 1 1 1 1 1 1 1 1 1 1 1 1 1 1 1 1 1 1 1 1 1 1 1 1 1 1 1 1 1 1 1 1 1 1 1 1 1 1 1 1 1 1 1 1 1 1 1 1 1 1 1 1 1 1 1 1 1 1 1 1 1 1 1 1 1 1 1 1 1 1 1 1 1 1 1 1 1 1 1 1 1 1 1 1 1 1 1 1 1 1 1 1 1 1 1 1 1 1 1 1 1 1 1 1 1 1 1 1 1 1 1 1 1 1 1 1 1 1 1 1 1 1 1 1 1 1 1 1 1 1 1 1 1 1 1 1 1 1 1 1 1 1 1 1 1 1 </DataArray>
</PointData>
<CellData/>
</Piece>
</UnstructuredGrid>
</VTKFile>
