<?xml version="1.0" ?>
<VTKFile byte_order="LittleEndian" type="UnstructuredGrid" version="0.1">
<UnstructuredGrid>
<Piece NumberOfCells="0" NumberOfPoints="36">
<Points>
<DataArray NumberOfComponents="3" format="ascii" type="Float32">28.949219236069517 11.185954129750348 2 98.59506427717831 7.5632473027342408 2 27.338614810221451 3.1384081800103267 2 60.844626551971785 11.35320525350609 2 96.232057340121457 15.633111768059019 2 26.489156928744364 11.029237014579925 2 98.59506427717831 4.254560198526911 2 30.008605220804785 8.9384864058389741 2 96.889907078572833 10.781652823192447 2 31.312148237418725 10.789600043394298 2 95.173859366178419 5.451655927581128 2 25.339558229965409 6.3366911745000802 2 58.784976339605826 15.351347392655356 2 96.640833586336228 13.143717311453694 2 27.922397230771676 8.8952187704372943 2 98.59506427717831 1.4049357228216868 2 28.959781508725893 4.9632838590378592 2 98.59506427717831 14.28037625254168 2 27.683997826128373 13.418144244264811 2 98.59506427717831 5.7715227607014423 2 28.91438720355028 1.4049357228216868 2 61.094348026141994 14.120775919293878 2 90.585698057954232 3.0440626286963357 2 98.59506427717831 16.830744824144215 2 96.848407017870855 3.5469899879527569 2 29.794993986971278 6.8785491415046396 2 98.59506427717831 9.4664453950632907 2 30.492402577577753 13.333102056228242 2 96.776728413072036 5.6023956642463482 2 26.642971995904684 4.7856705359517084 2 58.863982102880634 12.800654814716292 2 95.046379448354529 11.382435950681991 2 25.745069936285045 8.4943662650476188 2 98.59506427717831 2.8254056653753694 2 27.600942481313727 6.7461542397302097 2 98.59506427717831 11.81861674227471 2 </DataArray>
</Points>
<Cells>
<DataArray Name="connectivity" format="ascii" type="Int32">0</DataArray>
<DataArray Name="offsets" format="ascii" type="Int32">0</DataArray>
<DataArray Name="types" format="ascii" type="UInt8">1</DataArray>
</Cells>
<PointData>
<DataArray Name="Points" NumberOfComponents="3" format="ascii" type="Float32">28.949219236069517 11.185954129750348 2 98.59506427717831 7.5632473027342408 2 27.338614810221451 3.1384081800103267 2 60.844626551971785 11.35320525350609 2 96.232057340121457 15.633111768059019 2 26.489156928744364 11.029237014579925 2 98.59506427717831 4.254560198526911 2 30.008605220804785 8.9384864058389741 2 96.889907078572833 10.781652823192447 2 31.312148237418725 10.789600043394298 2 95.173859366178419 5.451655927581128 2 25.339558229965409 6.3366911745000802 2 58.784976339605826 15.351347392655356 2 96.640833586336228 13.143717311453694 2 27.922397230771676 8.8952187704372943 2 98.59506427717831 1.4049357228216868 2 28.959781508725893 4.9632838590378592 2 98.59506427717831 14.28037625254168 2 27.683997826128373 13.418144244264811 2 98.59506427717831 5.7715227607014423 2 28.91438720355028 1.4049357228216868 2 61.094348026141994 14.120775919293878 2 90.585698057954232 3.0440626286963357 2 98.59506427717831 16.830744824144215 2 96.848407017870855 3.5469899879527569 2 29.794993986971278 6.8785491415046396 2 98.59506427717831 9.4664453950632907 2 30.492402577577753 13.333102056228242 2 96.776728413072036 5.6023956642463482 2 26.642971995904684 4.7856705359517084 2 58.863982102880634 12.800654814716292 2 95.046379448354529 11.382435950681991 2 25.745069936285045 8.4943662650476188 2 98.59506427717831 2.8254056653753694 2 27.600942481313727 6.7461542397302097 2 98.59506427717831 11.81861674227471 2 </DataArray>
<DataArray Name="forces" NumberOfComponents="3" format="ascii" type="Float32">-0.057085423178547381 0.31322413679988487 0.0 1.214678615492214 0.17376625783356864 0.0 -0.066376014747930007 0.12570693153281931 0.0 0.038787892936891111 0.34325775392286817 0.0 -0.045479367210681229 0.34249337869263824 0.0 -0.079862806331259861 0.32936363061451063 0.0 1.3013915689085538 0.10888107318538798 0.0 -0.057479881779479172 0.28799440094807094 0.0 -0.036043329597657103 0.29292629353914362 0.0 -0.023327480735217877 0.27010120604159327 0.0 -0.059107883484587148 0.14526546715728417 0.0 -0.070854468497324741 0.30202320584073039 0.0 0.017767212599744502 0.40370801780731236 0.0 -0.033608246940212361 0.32298027939736446 0.0 -0.071950742926564254 0.29497015938145177 0.0 1.1843647209554506 -1.4290091340160542 0.0 -0.065921459601930077 0.19366817207917214 0.0 0.55515759316819258 0.3232745059667213 0.0 -0.059039239756124975 0.33922866295823773 0.0 1.2232395691481774 0.1438738441220806 0.0 -0.0021207076578309003 -1.2707749978688756 0.0 0.012982778964143932 0.35250709267403729 0.0 -0.06445970186975325 0.12874670894860724 0.0 0.14575311845759456 0.33435230236077512 0.0 -0.019137566494137892 0.090003091976359362 0.0 -0.056560944796951285 0.25905357309522625 0.0 1.1786639392420999 0.22718498454402691 0.0 -0.05690261200908172 0.30708767950944982 0.0 -0.035243635679255494 0.13990935615985778 0.0 -0.099444926085263285 0.20865446817428712 0.0 -0.0096107235469596319 0.36883754520617162 0.0 -0.037259834071085754 0.29507823890055873 0.0 -0.097996027714359696 0.33285815580858735 0.0 1.3297347524344962 0.063921588662944562 0.0 -0.082294334272103226 0.26429799251843067 0.0 1.0714893333617703 0.28146622460384374 0.0 </DataArray>
<DataArray Name="radii" format="ascii" type="Float32">1.4049357228216868 1.4049357228216868 1.4049357228216868 1.4049357228216868 1.4049357228216868 1.4049357228216868 1.4049357228216868 1.4049357228216868 1.4049357228216868 1.4049357228216868 1.4049357228216868 1.4049357228216868 1.4049357228216868 1.4049357228216868 1.4049357228216868 1.4049357228216868 1.4049357228216868 1.4049357228216868 1.4049357228216868 1.4049357228216868 1.4049357228216868 1.4049357228216868 1.4049357228216868 1.4049357228216868 1.4049357228216868 1.4049357228216868 1.4049357228216868 1.4049357228216868 1.4049357228216868 1.4049357228216868 1.4049357228216868 1.4049357228216868 1.4049357228216868 1.4049357228216868 1.4049357228216868 1.4049357228216868 </DataArray>
</PointData>
<CellData/>
</Piece>
</UnstructuredGrid>
</VTKFile>
