<?xml version="1.0" ?>
<VTKFile byte_order="LittleEndian" type="UnstructuredGrid" version="0.1">
<UnstructuredGrid>
<Piece NumberOfCells="0" NumberOfPoints="37">
<Points>
<DataArray NumberOfComponents="3" format="ascii" type="Float32">29.141649001890944 10.358927661309359 2 98.72006427717831 7.1852812940271269 2 27.590794310917556 2.9055906202557464 2 60.736980038137204 10.483042252516714 2 89.721843249308662 1.2799357228216868 2 96.506627639576251 14.62328065944317 2 26.794731491029928 10.105436332632395 2 98.72006427717831 4.0589571298395555 2 30.183835599778625 8.3529610375646985 2 97.146414594285815 10.174700424685437 2 31.412803581873295 10.05396545616756 2 95.384381799178939 5.0704663960000094 2 25.568149224562035 5.6947375584107531 2 58.752759767550991 14.141708699479636 2 96.803318029779632 12.335320041744504 2 28.186883329253845 8.1893389130686352 2 98.72006427717831 1.2799357228216868 2 29.228052308701194 4.5738488054325757 2 98.72006427717831 13.465320382045324 2 27.926200612919938 12.34390238373561 2 98.72006427717831 5.5164144394228032 2 28.883735645114122 1.2799357228216868 2 60.967605364713094 13.018318521665815 2 90.892752301764645 3.0441778226640959 2 98.72006427717831 15.811970323055501 2 97.031190648173265 3.2753105160309945 2 29.955902667683418 6.4081109448445153 2 98.72006427717831 8.958307253394322 2 30.699313235107631 12.310521559646812 2 96.959006056271704 5.2613401367013948 2 26.924037385762361 4.36441008185004 2 58.893307090724925 11.836496620559686 2 95.255978876153208 10.6264673204678 2 26.106889663585925 7.6835745074395829 2 98.72006427717831 2.6472764299125062 2 27.816240434584433 6.134556655846902 2 98.72006427717831 11.210696977516168 2 </DataArray>
</Points>
<Cells>
<DataArray Name="connectivity" format="ascii" type="Int32">0</DataArray>
<DataArray Name="offsets" format="ascii" type="Int32">0</DataArray>
<DataArray Name="types" format="ascii" type="UInt8">1</DataArray>
</Cells>
<PointData>
<DataArray Name="Points" NumberOfComponents="3" format="ascii" type="Float32">29.141649001890944 10.358927661309359 2 98.72006427717831 7.1852812940271269 2 27.590794310917556 2.9055906202557464 2 60.736980038137204 10.483042252516714 2 89.721843249308662 1.2799357228216868 2 96.506627639576251 14.62328065944317 2 26.794731491029928 10.105436332632395 2 98.72006427717831 4.0589571298395555 2 30.183835599778625 8.3529610375646985 2 97.146414594285815 10.174700424685437 2 31.412803581873295 10.05396545616756 2 95.384381799178939 5.0704663960000094 2 25.568149224562035 5.6947375584107531 2 58.752759767550991 14.141708699479636 2 96.803318029779632 12.335320041744504 2 28.186883329253845 8.1893389130686352 2 98.72006427717831 1.2799357228216868 2 29.228052308701194 4.5738488054325757 2 98.72006427717831 13.465320382045324 2 27.926200612919938 12.34390238373561 2 98.72006427717831 5.5164144394228032 2 28.883735645114122 1.2799357228216868 2 60.967605364713094 13.018318521665815 2 90.892752301764645 3.0441778226640959 2 98.72006427717831 15.811970323055501 2 97.031190648173265 3.2753105160309945 2 29.955902667683418 6.4081109448445153 2 98.72006427717831 8.958307253394322 2 30.699313235107631 12.310521559646812 2 96.959006056271704 5.2613401367013948 2 26.924037385762361 4.36441008185004 2 58.893307090724925 11.836496620559686 2 95.255978876153208 10.6264673204678 2 26.106889663585925 7.6835745074395829 2 98.72006427717831 2.6472764299125062 2 27.816240434584433 6.134556655846902 2 98.72006427717831 11.210696977516168 2 </DataArray>
<DataArray Name="forces" NumberOfComponents="3" format="ascii" type="Float32">-0.046986257264848209 0.25101441523807067 0.0 0.84782964807792194 0.17102333991712781 0.0 -0.056577685973594916 0.088275597430690467 0.0 0.017621046491589298 0.26292608750576629 0.0 -0.038697140748962022 -0.75633301066104308 0.0 -0.039132917964364487 0.2436913950248748 0.0 -0.056157876406691586 0.22694769399030984 0.0 0.99025712984923975 0.097967160635753725 0.0 -0.043651989857928161 0.22782244197688739 0.0 -0.03465035705625652 0.22701771420770567 0.0 -0.035660027842677675 0.20477899190857834 0.0 -0.021083862354834892 0.125271096005728 0.0 -0.054254929750448655 0.16677736025252068 0.0 -0.034094267204741888 0.29517270232558523 0.0 -0.01664306662347792 0.23405070252531815 0.0 -0.062319730413184629 0.22606328385796914 0.0 0.93712665057370925 -1.1957188243989043 0.0 -0.03692958411379843 0.14982992188726041 0.0 0.34765044189000399 0.23531249584709213 0.0 -0.098769209502345884 0.24614255412863967 0.0 0.97246799975721787 0.1448667680882629 0.0 -0.015513809072391083 -1.1206083886650253 0.0 -0.03549485904258598 0.28932875183847734 0.0 0.0082367163005013788 0.084181249734733482 0.0 0.044420082942771305 0.23732062804480647 0.0 -0.028678182605256453 0.037294711419292748 0.0 -0.059494609769898843 0.20636018064301839 0.0 0.72432220976194328 0.17224381831912849 0.0 -0.04005197316553534 0.24224097564831493 0.0 -0.018644442264910341 0.056767184912393409 0.0 -0.021347907901664409 0.16184752323383877 0.0 -0.015287105199398909 0.27191797556726316 0.0 -0.023971254413011969 0.21335905166810415 0.0 -0.11480259176999555 0.25927905575997706 0.0 1.0484171943865737 0.061049834132315961 0.0 -0.07815939421506149 0.22093847481228318 0.0 0.85874272331887935 0.20376223499709642 0.0 </DataArray>
<DataArray Name="radii" format="ascii" type="Float32">1.2799357228216868 1.2799357228216868 1.2799357228216868 1.2799357228216868 1.2799357228216868 1.2799357228216868 1.2799357228216868 1.2799357228216868 1.2799357228216868 1.2799357228216868 1.2799357228216868 1.2799357228216868 1.2799357228216868 1.2799357228216868 1.2799357228216868 1.2799357228216868 1.2799357228216868 1.2799357228216868 1.2799357228216868 1.2799357228216868 1.2799357228216868 1.2799357228216868 1.2799357228216868 1.2799357228216868 1.2799357228216868 1.2799357228216868 1.2799357228216868 1.2799357228216868 1.2799357228216868 1.2799357228216868 1.2799357228216868 1.2799357228216868 1.2799357228216868 1.2799357228216868 1.2799357228216868 1.2799357228216868 1.2799357228216868 </DataArray>
</PointData>
<CellData/>
</Piece>
</UnstructuredGrid>
</VTKFile>
