<?xml version="1.0" ?>
<VTKFile byte_order="LittleEndian" type="UnstructuredGrid" version="0.1">
<UnstructuredGrid>
<Piece NumberOfCells="0" NumberOfPoints="35">
<Points>
<DataArray NumberOfComponents="3" format="ascii" type="Float32">0 0 0 34.417349381555084 10.294313997544412 2 39.775505635654469 6.9966007700708914 2 81.497184743241874 1 2 37.78056519736964 9.5611544271171933 2 81.765731460851995 13.006781594052047 2 32.319582122716064 10.320130225078049 2 38.871619750552945 5.1124564614399315 2 81.165801145201897 11.444058086849163 2 34.159334486224076 4.3242853436428996 2 80.318462008512142 1.5735042457914596 2 33.510132466219702 12.04721169712375 2 35.758398021466377 8.4793159897132906 2 37.979624195008945 12.011539140511417 2 80.176319820212498 6.4163258204733742 2 41.701198387476005 1 2 34.574582654566363 1.2 2 39.744864415654746 1.4 2 82.54530957886314 7.0080761076272955 2 36.521398646221684 7.0083521730044858 2 79.18943506853725 14.351686389967792 2 35.886101553607972 3.0088786315660285 2 80.9555345674016 4.4004513403885221 2 32.5646070428934 14.837759493653168 2 35.656072497178165 5.3556702239816696 2 79.903670010519974 10.685020137467722 2 38.799109008433057 3.2690351073035231 2 39.208598036289622 15.273689446661001 2 36.312830899983297 1 2 81.460476106026135 2.746477966999926 2 31.827964016322372 12.720098462529513 2 79.706237648220323 3.1456591762696404 2 37.338571799988827 14.160216681171251 2 37.349232413121825 4.2393594516150301 2 81.069227338677038 8.2007274316391552 2 </DataArray>
</Points>
<Cells>
<DataArray Name="connectivity" format="ascii" type="Int32">0</DataArray>
<DataArray Name="offsets" format="ascii" type="Int32">0</DataArray>
<DataArray Name="types" format="ascii" type="UInt8">1</DataArray>
</Cells>
<PointData>
<DataArray Name="Points" NumberOfComponents="3" format="ascii" type="Float32">0 0 0 34.417349381555084 10.294313997544412 2 39.775505635654469 6.9966007700708914 2 81.497184743241874 1 2 37.78056519736964 9.5611544271171933 2 81.765731460851995 13.006781594052047 2 32.319582122716064 10.320130225078049 2 38.871619750552945 5.1124564614399315 2 81.165801145201897 11.444058086849163 2 34.159334486224076 4.3242853436428996 2 80.318462008512142 1.5735042457914596 2 33.510132466219702 12.04721169712375 2 35.758398021466377 8.4793159897132906 2 37.979624195008945 12.011539140511417 2 80.176319820212498 6.4163258204733742 2 41.701198387476005 1 2 34.574582654566363 1.2 2 39.744864415654746 1.4 2 82.54530957886314 7.0080761076272955 2 36.521398646221684 7.0083521730044858 2 79.18943506853725 14.351686389967792 2 35.886101553607972 3.0088786315660285 2 80.9555345674016 4.4004513403885221 2 32.5646070428934 14.837759493653168 2 35.656072497178165 5.3556702239816696 2 79.903670010519974 10.685020137467722 2 38.799109008433057 3.2690351073035231 2 39.208598036289622 15.273689446661001 2 36.312830899983297 1 2 81.460476106026135 2.746477966999926 2 31.827964016322372 12.720098462529513 2 79.706237648220323 3.1456591762696404 2 37.338571799988827 14.160216681171251 2 37.349232413121825 4.2393594516150301 2 81.069227338677038 8.2007274316391552 2 </DataArray>
<DataArray Name="forces" NumberOfComponents="3" format="ascii" type="Float32">0 0 0 0.0074005641779010811 0.14694412512180033 0.0 -0.1333183330354995 0.052088635943345576 0.0 -0.069630785670180551 -0.55007046452148911 0.0 -0.01054468113855081 0.12297757655068044 0.0 0.036922000197727678 0.13586547893497913 0.0 0.012101133585464163 0.075784376725919658 0.0 0.016618253542799541 -0.016271883143298624 0.0 0.013631479658413714 0.1490167818969832 0.0 0.059635480699457274 -0.052609131290411559 0.0 -0.043550851800018275 0.0037982068794183421 0.0 -0.0033897992082094763 0.11536689951465545 0.0 -0.018780326021641175 0.16944861389149996 0.0 0.017551960988169885 0.13816208524147122 0.0 0.0015450360017249809 0.031398106788840641 0.0 -0.1110411301892783 -0.83742725391724138 0.0 0.061983124284714169 -0.42923679389501473 0.0 -0.040909637635602625 -0.54363203453935083 0.0 -0.0044340206169664609 0.094920458347158093 0.0 -0.15851572329830005 0.078924417154340287 0.0 -0.030653197837997734 0.12859427540206084 0.0 -0.016540964046801165 0.0042517197766199187 0.0 0.028802942693015809 0.0075081346458017381 0.0 0.070655623501820641 0.14709707845108433 0.0 0.046583796689863788 -0.046056833215726449 0.0 -0.0088972631790756873 0.14110203454591613 0.0 0.020530661656046195 -0.018751176733145729 0.0 -0.05867793895573567 0.1387932299758165 0.0 0.015708728220342097 -0.28019302667114077 0.0 0.020009724397962086 -0.011864941930227316 0.0 0.024304376629606467 0.17513475443786206 0.0 0.051467526317571337 0.01178475261572224 0.0 -0.066285310856707289 0.14296572554280543 0.0 0.046983123562564386 -0.01768263948890772 0.0 -0.018013771522858213 0.078081911408421578 0.0 </DataArray>
<DataArray Name="radii" format="ascii" type="Float32">0 1.2 1.4 1 1.2 1.2 1.2 1 1 1 1 1 1.2 1.4 1.4 1 1.2 1.4 1.4 1 1 1.2 1.2 1.4 1.4 1 1 1.2 1 1 1 1 1 1 1.2 </DataArray>
</PointData>
<CellData/>
</Piece>
</UnstructuredGrid>
</VTKFile>
