<?xml version="1.0" ?>
<VTKFile byte_order="LittleEndian" type="UnstructuredGrid" version="0.1">
<UnstructuredGrid>
<Piece NumberOfCells="0" NumberOfPoints="193">
<Points>
<DataArray NumberOfComponents="3" format="ascii" type="Float32">0 0 0 30.625725001510339 13.416062287146458 2 48.628006371688592 8.8204337611713974 2 62.511266152904135 15.654174978458327 2 34.334565805193364 7.8693143805348473 2 45.77615858080452 5.7936848155678851 2 60.367299223079094 19.613486084700227 2 29.848029908007987 1.4 2 49.339823401696506 3.3611178804856747 2 66.115043673794602 4.2932089535930196 2 36.606890096129654 14.894613313558745 2 45.738279363914955 10.699776335679134 2 60.863065384184225 1.4 2 32.400966038829232 21.789930216904541 2 48.693882392112613 10.141486502659927 2 60.895653720078151 9.6177860318990227 2 34.413059746596431 1.4 2 43.19839947909135 1.4 2 57.500920640186088 11.85985366500271 2 29.286645683178062 8.9546983587561382 2 44.388245292914554 3.8065075036606113 2 66.697541239352205 8.8554418783192013 2 32.919638955228002 11.683003231293899 2 46.973134478719999 16.986071816873551 2 65.305400514113586 1.4 2 31.649988356846332 15.032697605204854 2 50.500958282004788 9.0644287200016489 2 61.42033862350754 10.881799538020244 2 33.999126600621594 5.4506712109392508 2 45.108804010128928 9.3700940724115025 2 59.402603998703484 14.654722312209826 2 31.51856626737705 6.0549648759035177 2 49.385939979991143 6.6300011400918253 2 65.48011124401873 6.8613973828831902 2 38.619526901525468 22.005978270500663 2 43.650548086918633 16.325246038218928 2 60.564459305595499 3.5206234683472322 2 34.563287689732498 15.06565542422457 2 49.683899402651207 14.034022973825513 2 60.35148160858067 5.1396044952956723 2 31.180603841509747 2.7588822587919308 2 43.086452050360023 3.9951924652099184 2 56.434302675496767 13.301765078559917 2 33.217127050736337 7.2336605646760441 2 48.082243501189403 3.1834429823339288 2 63.130899737292509 7.7034673131754836 2 35.699239347375133 11.613465045795541 2 48.721660895406039 20.205915083292712 2 63.459733159991536 5.4067659923686424 2 30.466379541598144 10.836502804012316 2 46.165643903007656 7.5557293011778039 2 61.8080680800498 17.680656713345833 2 33.211106826000041 10.386851254517227 2 46.700182428265222 3.9494180982921425 2 62.632671955099489 19.68741912434286 2 29.625602979328796 3.9953665563249849 2 50.561877662949549 1.4 2 66.714791332729021 2.8912551528503978 2 35.24836108152256 18.870869790417881 2 46.83269596979207 12.427460555235136 2 62.936229662076308 2.8357765524359944 2 34.589783788318222 21.354047039569895 2 47.49864506947884 14.688168405091425 2 63.211310542785242 11.244531509926416 2 35.626046226409009 1.4 2 44.462690475158972 1.4 2 59.816291653796739 12.619509395317172 2 30.779378704519537 7.8720639222147737 2 46.681534890654206 2.744831926512485 2 67.911115295028637 10.483698301859553 2 31.81064647927489 12.838299908245133 2 46.868431463206058 19.16458210853785 2 63.102146990853747 1.4 2 31.1526636183726 17.481601196670322 2 51.645920388195698 7.6102576079575757 2 61.317529979519968 13.685505364026533 2 32.190710971932653 4.21996473626516 2 44.614992481240499 10.935272597913453 2 58.843168124769896 18.164803142120284 2 29.170930021580912 5.3417843398767175 2 47.034823566882793 5.4139112401114202 2 64.217018914934059 2.9555437137616796 2 39.058642404083947 17.617961451188357 2 45.087546753831276 18.606198116401973 2 58.644043130764061 1.4 2 33.301698414601944 19.257436784392784 2 48.489329217251218 15.921125305753735 2 61.224097525653846 6.3387471818008265 2 32.078442631172059 1.4 2 44.283507156786044 5.6232733022209214 2 55.176059048243737 16.98237809265126 2 31.940519453497764 9.176195984753063 2 48.770686974950486 1.4446550835645606 2 65.407065919311407 8.3276091554927607 2 37.474151873206566 11.489439239443879 2 51.100826267670513 20.561491149818817 2 61.610167731598935 4.7849861663075295 2 29.413943210286011 14.37557526306991 2 48.224975860842548 7.6106868540949613 2 63.810625234471665 17.307638689997301 2 34.615481338206877 9.2371181130558178 2 44.956661763791615 6.9436545743126459 2 61.492908057091093 21.84163198985674 2 29.853997264392671 2.8353891042519082 2 50.573752683508097 3.6764880447847075 2 65.431715199211496 3.1174704181748503 2 35.566005110115931 16.375248065637912 2 47.073671013932568 9.7981211160858184 2 61.941139749835955 1.4 2 31.565424022575861 19.463592616813745 2 47.279941148243971 11.186399948977655 2 62.101652919012622 8.5584789728983051 2 33.212838297342742 1.4 2 41.990162857017516 1.4 2 58.493729004620711 10.787325137233507 2 28.930404382079608 10.272120602097225 2 45.419134227659463 4.5080524177796564 2 67.673599413000858 7.9214605462922707 2 34.299659328326022 12.81203345005223 2 45.931578853121792 15.172389077487615 2 66.416254855022117 1.4 2 33.094355639819675 15.154895062006036 2 49.976924687385441 7.8619810350136969 2 61.404791571811693 12.308357259094359 2 32.717784894469233 5.7105372818120985 2 44.542322391250735 8.2801911779076249 2 57.513341765917914 14.325785639081023 2 30.493263910038312 5.3942126074098331 2 48.719664104138161 5.6067675559200394 2 64.18855118648905 6.7035429970820548 2 38.169109618635616 19.416020293616977 2 45.13087585719154 16.77465686380479 2 59.519095045764409 2.8734376466502649 2 33.059698875406482 13.495920753879036 2 50.160447415093962 12.387730500799666 2 59.683340688390203 6.3009618754208105 2 32.501143224898811 2.9505929660905212 2 43.750978285170724 2.5251192989453024 2 55.299987569237267 14.619502630610368 2 32.060802876658705 7.37872095053614 2 48.100747992233046 4.4682539631308629 2 62.499535737336743 6.4158605558418147 2 35.422650472586149 13.709808072202788 2 49.360521131041097 22.484311122777488 2 64.306500477171923 4.3820470296477607 2 29.917062275593317 12.225722095877869 2 46.736165406651622 8.6239919717588389 2 60.246351285153153 16.949347615588252 2 33.182383573400081 8.9909738111463202 2 45.33299564275125 2.8419185515576264 2 64.546868369417339 19.335579751654784 2 28.829988156268165 1.4 2 49.588029244104 1.4 2 67.546331038945638 1.4 2 36.807088020249815 17.891889879869417 2 45.991002860466921 13.334160699094387 2 61.633506422499863 2.9953638848382842 2 36.567808241923082 20.607842093015655 2 48.346654428733281 13.317585409416504 2 62.764646562348872 9.9415809855859756 2 36.391965251968713 2.3436128870814321 2 45.629970263064678 1.4 2 58.633361136245838 13.097592883065701 2 30.003803601615004 6.7569404812996101 2 46.783317739347879 1.4 2 66.800227435025747 11.48907107787284 2 31.651403359960028 11.011652026770063 2 48.707204033012587 17.959779814221896 2 64.233612285965521 1.4 2 32.620843415316351 16.999843230468219 2 52.112759487637661 6.1048324011139616 2 60.890481809039244 15.177769700274748 2 33.467517661504353 4.1783285036453552 2 43.201369512974019 10.201929104635862 2 58.412444264634097 16.045552538157104 2 31.007312682521839 4.163004511693603 2 47.321075811727702 6.6661097450826503 2 65.223374729432152 5.3699240571760249 2 37.600039648672372 16.228123653823786 2 46.02485747123518 21.366155257907629 2 59.803790009456989 1.4 2 34.170123547391746 17.21029908252066 2 49.99445646511856 15.860549306008046 2 60.933253200647478 7.8240735961867633 2 30.947177737913986 1.4 2 43.515182880449089 6.8119451898413343 2 53.2167499229379 16.584494223537892 2 30.653631721458559 9.3035821329056976 2 47.807399370265308 1.4 2 64.050450654992346 8.7429897078223213 2 36.748629761040775 12.735903965605697 2 50.375923362085238 18.109577453844583 2 62.771290712806177 4.1942148983677665 2 </DataArray>
</Points>
<Cells>
<DataArray Name="connectivity" format="ascii" type="Int32">0</DataArray>
<DataArray Name="offsets" format="ascii" type="Int32">0</DataArray>
<DataArray Name="types" format="ascii" type="UInt8">1</DataArray>
</Cells>
<PointData>
<DataArray Name="Points" NumberOfComponents="3" format="ascii" type="Float32">0 0 0 30.625725001510339 13.416062287146458 2 48.628006371688592 8.8204337611713974 2 62.511266152904135 15.654174978458327 2 34.334565805193364 7.8693143805348473 2 45.77615858080452 5.7936848155678851 2 60.367299223079094 19.613486084700227 2 29.848029908007987 1.4 2 49.339823401696506 3.3611178804856747 2 66.115043673794602 4.2932089535930196 2 36.606890096129654 14.894613313558745 2 45.738279363914955 10.699776335679134 2 60.863065384184225 1.4 2 32.400966038829232 21.789930216904541 2 48.693882392112613 10.141486502659927 2 60.895653720078151 9.6177860318990227 2 34.413059746596431 1.4 2 43.19839947909135 1.4 2 57.500920640186088 11.85985366500271 2 29.286645683178062 8.9546983587561382 2 44.388245292914554 3.8065075036606113 2 66.697541239352205 8.8554418783192013 2 32.919638955228002 11.683003231293899 2 46.973134478719999 16.986071816873551 2 65.305400514113586 1.4 2 31.649988356846332 15.032697605204854 2 50.500958282004788 9.0644287200016489 2 61.42033862350754 10.881799538020244 2 33.999126600621594 5.4506712109392508 2 45.108804010128928 9.3700940724115025 2 59.402603998703484 14.654722312209826 2 31.51856626737705 6.0549648759035177 2 49.385939979991143 6.6300011400918253 2 65.48011124401873 6.8613973828831902 2 38.619526901525468 22.005978270500663 2 43.650548086918633 16.325246038218928 2 60.564459305595499 3.5206234683472322 2 34.563287689732498 15.06565542422457 2 49.683899402651207 14.034022973825513 2 60.35148160858067 5.1396044952956723 2 31.180603841509747 2.7588822587919308 2 43.086452050360023 3.9951924652099184 2 56.434302675496767 13.301765078559917 2 33.217127050736337 7.2336605646760441 2 48.082243501189403 3.1834429823339288 2 63.130899737292509 7.7034673131754836 2 35.699239347375133 11.613465045795541 2 48.721660895406039 20.205915083292712 2 63.459733159991536 5.4067659923686424 2 30.466379541598144 10.836502804012316 2 46.165643903007656 7.5557293011778039 2 61.8080680800498 17.680656713345833 2 33.211106826000041 10.386851254517227 2 46.700182428265222 3.9494180982921425 2 62.632671955099489 19.68741912434286 2 29.625602979328796 3.9953665563249849 2 50.561877662949549 1.4 2 66.714791332729021 2.8912551528503978 2 35.24836108152256 18.870869790417881 2 46.83269596979207 12.427460555235136 2 62.936229662076308 2.8357765524359944 2 34.589783788318222 21.354047039569895 2 47.49864506947884 14.688168405091425 2 63.211310542785242 11.244531509926416 2 35.626046226409009 1.4 2 44.462690475158972 1.4 2 59.816291653796739 12.619509395317172 2 30.779378704519537 7.8720639222147737 2 46.681534890654206 2.744831926512485 2 67.911115295028637 10.483698301859553 2 31.81064647927489 12.838299908245133 2 46.868431463206058 19.16458210853785 2 63.102146990853747 1.4 2 31.1526636183726 17.481601196670322 2 51.645920388195698 7.6102576079575757 2 61.317529979519968 13.685505364026533 2 32.190710971932653 4.21996473626516 2 44.614992481240499 10.935272597913453 2 58.843168124769896 18.164803142120284 2 29.170930021580912 5.3417843398767175 2 47.034823566882793 5.4139112401114202 2 64.217018914934059 2.9555437137616796 2 39.058642404083947 17.617961451188357 2 45.087546753831276 18.606198116401973 2 58.644043130764061 1.4 2 33.301698414601944 19.257436784392784 2 48.489329217251218 15.921125305753735 2 61.224097525653846 6.3387471818008265 2 32.078442631172059 1.4 2 44.283507156786044 5.6232733022209214 2 55.176059048243737 16.98237809265126 2 31.940519453497764 9.176195984753063 2 48.770686974950486 1.4446550835645606 2 65.407065919311407 8.3276091554927607 2 37.474151873206566 11.489439239443879 2 51.100826267670513 20.561491149818817 2 61.610167731598935 4.7849861663075295 2 29.413943210286011 14.37557526306991 2 48.224975860842548 7.6106868540949613 2 63.810625234471665 17.307638689997301 2 34.615481338206877 9.2371181130558178 2 44.956661763791615 6.9436545743126459 2 61.492908057091093 21.84163198985674 2 29.853997264392671 2.8353891042519082 2 50.573752683508097 3.6764880447847075 2 65.431715199211496 3.1174704181748503 2 35.566005110115931 16.375248065637912 2 47.073671013932568 9.7981211160858184 2 61.941139749835955 1.4 2 31.565424022575861 19.463592616813745 2 47.279941148243971 11.186399948977655 2 62.101652919012622 8.5584789728983051 2 33.212838297342742 1.4 2 41.990162857017516 1.4 2 58.493729004620711 10.787325137233507 2 28.930404382079608 10.272120602097225 2 45.419134227659463 4.5080524177796564 2 67.673599413000858 7.9214605462922707 2 34.299659328326022 12.81203345005223 2 45.931578853121792 15.172389077487615 2 66.416254855022117 1.4 2 33.094355639819675 15.154895062006036 2 49.976924687385441 7.8619810350136969 2 61.404791571811693 12.308357259094359 2 32.717784894469233 5.7105372818120985 2 44.542322391250735 8.2801911779076249 2 57.513341765917914 14.325785639081023 2 30.493263910038312 5.3942126074098331 2 48.719664104138161 5.6067675559200394 2 64.18855118648905 6.7035429970820548 2 38.169109618635616 19.416020293616977 2 45.13087585719154 16.77465686380479 2 59.519095045764409 2.8734376466502649 2 33.059698875406482 13.495920753879036 2 50.160447415093962 12.387730500799666 2 59.683340688390203 6.3009618754208105 2 32.501143224898811 2.9505929660905212 2 43.750978285170724 2.5251192989453024 2 55.299987569237267 14.619502630610368 2 32.060802876658705 7.37872095053614 2 48.100747992233046 4.4682539631308629 2 62.499535737336743 6.4158605558418147 2 35.422650472586149 13.709808072202788 2 49.360521131041097 22.484311122777488 2 64.306500477171923 4.3820470296477607 2 29.917062275593317 12.225722095877869 2 46.736165406651622 8.6239919717588389 2 60.246351285153153 16.949347615588252 2 33.182383573400081 8.9909738111463202 2 45.33299564275125 2.8419185515576264 2 64.546868369417339 19.335579751654784 2 28.829988156268165 1.4 2 49.588029244104 1.4 2 67.546331038945638 1.4 2 36.807088020249815 17.891889879869417 2 45.991002860466921 13.334160699094387 2 61.633506422499863 2.9953638848382842 2 36.567808241923082 20.607842093015655 2 48.346654428733281 13.317585409416504 2 62.764646562348872 9.9415809855859756 2 36.391965251968713 2.3436128870814321 2 45.629970263064678 1.4 2 58.633361136245838 13.097592883065701 2 30.003803601615004 6.7569404812996101 2 46.783317739347879 1.4 2 66.800227435025747 11.48907107787284 2 31.651403359960028 11.011652026770063 2 48.707204033012587 17.959779814221896 2 64.233612285965521 1.4 2 32.620843415316351 16.999843230468219 2 52.112759487637661 6.1048324011139616 2 60.890481809039244 15.177769700274748 2 33.467517661504353 4.1783285036453552 2 43.201369512974019 10.201929104635862 2 58.412444264634097 16.045552538157104 2 31.007312682521839 4.163004511693603 2 47.321075811727702 6.6661097450826503 2 65.223374729432152 5.3699240571760249 2 37.600039648672372 16.228123653823786 2 46.02485747123518 21.366155257907629 2 59.803790009456989 1.4 2 34.170123547391746 17.21029908252066 2 49.99445646511856 15.860549306008046 2 60.933253200647478 7.8240735961867633 2 30.947177737913986 1.4 2 43.515182880449089 6.8119451898413343 2 53.2167499229379 16.584494223537892 2 30.653631721458559 9.3035821329056976 2 47.807399370265308 1.4 2 64.050450654992346 8.7429897078223213 2 36.748629761040775 12.735903965605697 2 50.375923362085238 18.109577453844583 2 62.771290712806177 4.1942148983677665 2 </DataArray>
<DataArray Name="forces" NumberOfComponents="3" format="ascii" type="Float32">0 0 0 0.0015158426964642785 0.32020076958266597 0.0 -0.060954916506563844 0.27661825811548807 0.0 0.044620486032175721 0.43072832160973751 0.0 -0.0044441115363895028 0.25503624188277785 0.0 0.07054625806347159 0.26421905298599924 0.0 0.038809122191682907 0.47391035591372133 0.0 0.042082714813372335 -2.5591995264431633 0.0 -0.039096344263998883 -0.17317520408684448 0.0 0.0047166274377213879 0.18659739025286748 0.0 0.010572365709945644 0.37231799091967877 0.0 0.086515024399742846 0.28296774272241187 0.0 -0.0016462690723786366 -2.335873887190886 0.0 -0.028908183594385573 0.61551388232465509 0.0 0.014838457153381612 0.32852257630322079 0.0 -0.017706024175967654 0.27114615091715688 0.0 0.062325593970685267 -2.8295154219270717 0.0 0.00052922315127307273 -2.9684216352148871 0.0 0.035676592094020299 0.29082599130042947 0.0 -0.029744787406987605 0.16944010484138133 0.0 -0.013820332750910276 0.19356933514385921 0.0 -0.015390055021569982 0.27828800885642829 0.0 0.0085794990651066882 0.17502681242156448 0.0 -0.020229336433646772 0.48000961551157328 0.0 0.027827563080522921 -2.3775918951909385 0.0 0.040649216865508708 0.41435136231453207 0.0 0.0077384105404654235 0.13775259870025411 0.0 -0.038987187588382599 0.32773309611201534 0.0 0.11506420539348911 0.097463226017580951 0.0 0.003252979801352307 0.2959454972720002 0.0 -0.02892395145363591 0.47966299294379156 0.0 0.010623477874351611 0.17829280061461927 0.0 0.081303352411375096 0.16870205030766655 0.0 0.022692629128728742 0.2018087378319337 0.0 0.1672593484546735 0.53449247556945978 0.0 -0.069627998419492965 0.50827664680747664 0.0 0.0071161654560585874 0.26935660155364716 0.0 -0.11194279720934715 0.40691811246596932 0.0 0.10213146023500097 0.35767801161854296 0.0 -0.0074035735310180595 0.21680695205126344 0.0 -0.040257532915859179 0.11606794798338638 0.0 -0.050010037835002574 0.21847199560415642 0.0 -0.02911515831125433 0.37313235159434632 0.0 0.0032797405437138966 0.036499872121316779 0.0 0.17698579081051374 -0.13809181686200889 0.0 0.052734843327459147 0.26902728124358588 0.0 -0.0017845739696239482 0.28767495302630219 0.0 0.0050791730440680749 0.51096975615520379 0.0 -0.016543846656422612 0.079935686845274079 0.0 0.019221209467902012 0.21761966592139292 0.0 0.00083716325083101756 0.17119744299309839 0.0 0.049021098310788207 0.44664614051607743 0.0 -0.060437896062169663 0.22726302815434163 0.0 0.11069189758615473 0.12500748639099873 0.0 0.038469565337149403 0.56642047718456068 0.0 0.055127545217917184 0.18167405201755354 0.0 0.17360053097732456 -2.3200472527127642 0.0 0.02764901741842099 0.15758433818191492 0.0 0.082413164793357307 0.60817130061777935 0.0 0.15362768280954864 0.3672591276899746 0.0 -0.032730199360228696 0.072184180799124809 0.0 0.03395817459656536 0.64755330819362211 0.0 -0.015538670501408038 0.35857487665201582 0.0 0.016574149348881496 0.30218903751321025 0.0 0.028021944820257549 -3.0882674916526285 0.0 -0.026351557805167403 -2.8337851124569235 0.0 -0.010527724424350996 0.36270302859936038 0.0 -0.07178266324680932 0.23873223983005065 0.0 0.085849735153673223 0.11868177826793269 0.0 0.067344039209677797 0.29893782838799043 0.0 0.0039907511602804008 0.37535767488863236 0.0 -0.07246949480104764 0.48470045109231152 0.0 0.0016251954336081731 -2.5332512426595089 0.0 0.058099404515157937 0.49188015699719667 0.0 0.1369498326978788 0.18493284388171605 0.0 0.012044919296288481 0.29102454217390122 0.0 -0.051065785356251947 0.21097559443114344 0.0 0.049521024453281104 0.230723067426226 0.0 0.017336882824836142 0.48032845272123748 0.0 -0.070752137081048327 0.14697362658648072 0.0 0.066508007777033751 0.10228325306653852 0.0 -0.0018113745259270564 0.10434102354709973 0.0 0.080126236739889833 0.44735237960750218 0.0 -0.097416114413783284 0.45872664239026217 0.0 -0.068280930304436716 -2.4887175216312873 0.0 0.016225809185676981 0.60462691007366964 0.0 0.0032212450120210345 0.42259171107772564 0.0 0.098900042956397885 0.15235201021588113 0.0 0.061754316675477483 -2.6182902779908694 0.0 0.09124136514047021 0.11634149756197831 0.0 0.026381370372170698 0.4569318195022456 0.0 0.031430378951610383 0.11581842582037888 0.0 -0.003061056250414973 -1.3788875557914744 0.0 0.03067179132406106 0.15286231688899832 0.0 0.024915781293971317 0.27376372438980501 0.0 0.040336514104476806 0.62707485160476761 0.0 0.019423784183182358 0.14138259385961816 0.0 0.081206689065229265 0.35678977018458891 0.0 0.079290878475323678 0.20097675721498376 0.0 0.071230234312835372 0.53046516954054224 0.0 0.0054422168852935604 0.28652057055489538 0.0 -0.065413434071012633 0.23477678407979258 0.0 -0.031612864838911153 0.59693805187711924 0.0 -0.14318440320682313 0.010154158771840789 0.0 -0.17209743463217642 0.14102240256813747 0.0 0.028284772935233057 0.10542863093665278 0.0 -0.072383720874697577 0.3923400221041623 0.0 0.0050900213252662585 0.2214658249398811 0.0 -0.027268281690702834 -2.2805655522287349 0.0 -0.0093477494813526754 0.52653575608210823 0.0 0.013283723638637113 0.26984303011250776 0.0 0.024976145568839203 0.28683904605593441 0.0 0.073659037474214928 -2.7375657692749731 0.0 -0.011020937162564325 -2.7559624157438263 0.0 0.052674656361396344 0.29239985921949158 0.0 0.0185692911634876 0.22261569674475645 0.0 0.11411007384268107 0.18769243982409822 0.0 0.054140976689858511 0.29495177561324115 0.0 0.068943615291668203 0.34405807069765998 0.0 0.098303646488285434 0.35210228473062821 0.0 0.030162284297146069 -2.3757016004437004 0.0 -0.024586887126061607 0.32793612805294986 0.0 -0.018573882479685201 0.21341975607950747 0.0 0.065105945924230135 0.314596378935107 0.0 0.052108531376777678 0.17417916699718528 0.0 0.059663857975702173 0.25372485550539536 0.0 -0.016838711046932797 0.27702455484730482 0.0 0.03997782399222044 0.12650787751492842 0.0 -0.079241360545467682 0.17293174097063024 0.0 -0.047665571882271378 0.19881313804954737 0.0 -0.04789016009891589 0.42818387331340346 0.0 -0.0019121471453713013 0.37746344352965988 0.0 0.11153773503909151 -0.029226483924946478 0.0 0.034699881177716892 0.18465927332628085 0.0 0.058598027273395914 0.31602170070312785 0.0 0.067373528713387754 0.28003422814617984 0.0 -0.0047515474669579949 0.16533641810528182 0.0 0.086039451612836368 0.19302255016125053 0.0 -0.059660434821503405 0.40462211299930545 0.0 -0.027273180579591327 0.22521646694350317 0.0 0.095380513883181167 0.049058867837179998 0.0 0.09115217491284619 0.22523699809537828 0.0 0.052259432443755749 0.40933666707589106 0.0 -0.020388849572471807 0.5731034219350758 0.0 0.11248778775248303 0.12856032276071092 0.0 0.0029520976461723247 0.3152230087659198 0.0 0.047028279957496366 0.16682836373054888 0.0 0.055909484698071776 0.41542519749797124 0.0 0.055934113630850213 0.17908226161783669 0.0 0.036396765678969767 0.30049970417174054 0.0 0.097823531683284587 0.53959070140479193 0.0 -0.024360997774720339 -2.4900461239301404 0.0 0.17343966301502289 -2.162239997020408 0.0 0.020258003014591353 -2.3571824358981184 0.0 -0.020028098977893968 0.45042274226822981 0.0 -0.15931823818181473 0.17676672988316205 0.0 -0.019748837339917058 0.16678394839771959 0.0 0.10319683578379861 0.6280371738617252 0.0 0.0043158764355069046 0.44957568407364568 0.0 -0.035328176681529988 0.2940369184449691 0.0 0.0070988251125507773 0.03816985857706244 0.0 -0.12316771520871317 -2.6052496107953385 0.0 0.040032938940465335 0.33830670185341649 0.0 0.039573065442975675 0.11499616205881238 0.0 -0.15785340581787466 -2.7547971397226192 0.0 0.01407655093677335 0.29110035379546167 0.0 -0.0050980631251241748 0.33758089502737437 0.0 -0.0093920221363705814 0.44750857177107911 0.0 0.020658965339090951 -2.4684534964588147 0.0 0.077872200416508441 0.46779791009649729 0.0 -0.028818799325565969 0.21608690987650536 0.0 0.05426705323772063 0.31638869212795401 0.0 -0.069974320451188288 0.1563005140619462 0.0 -0.011486247752466483 0.28458431707825504 0.0 -0.012300607751374482 0.44448042924390141 0.0 -0.050828046028834707 0.023958201221971596 0.0 0.027877026325104998 0.16947395572286605 0.0 -0.036512133119667917 0.27869819540558144 0.0 -0.016124822654630555 0.45748080898055382 0.0 0.23032690873815537 0.61573525025282794 0.0 -0.028347218687318432 -2.4933993088491273 0.0 0.034865420473355835 0.56787701284447067 0.0 -0.021566757762563157 0.42357885284994445 0.0 0.10330523322250829 0.22140403389567542 0.0 0.1185242628851699 -2.6579778770734439 0.0 -0.035674178069268314 0.1383794895976953 0.0 0.030451140755916484 0.40684278916494565 0.0 0.039944527543164077 0.29535955377728451 0.0 -0.1763330577781641 -2.2360643486267637 0.0 0.051817932970716574 0.29892258478195344 0.0 0.036656329781306729 0.28982486226440651 0.0 0.011036740161860278 0.58869302877445306 0.0 0.081192077737116425 0.13646508744848915 0.0 </DataArray>
<DataArray Name="radii" format="ascii" type="Float32">0 1.4 1.4 1.4 1.4 1.4 1.4 1.4 1.4 1.4 1.4 1.4 1.4 1.4 1.4 1.4 1.4 1.4 1.4 1.4 1.4 1.4 1.4 1.4 1.4 1.4 1.4 1.4 1.4 1.4 1.4 1.4 1.4 1.4 1.4 1.4 1.4 1.4 1.4 1.4 1.4 1.4 1.4 1.4 1.4 1.4 1.4 1.4 1.4 1.4 1.4 1.4 1.4 1.4 1.4 1.4 1.4 1.4 1.4 1.4 1.4 1.4 1.4 1.4 1.4 1.4 1.4 1.4 1.4 1.4 1.4 1.4 1.4 1.4 1.4 1.4 1.4 1.4 1.4 1.4 1.4 1.4 1.4 1.4 1.4 1.4 1.4 1.4 1.4 1.4 1.4 1.4 1.4 1.4 1.4 1.4 1.4 1.4 1.4 1.4 1.4 1.4 1.4 1.4 1.4 1.4 1.4 1.4 1.4 1.4 1.4 1.4 1.4 1.4 1.4 1.4 1.4 1.4 1.4 1.4 1.4 1.4 1.4 1.4 1.4 1.4 1.4 1.4 1.4 1.4 1.4 1.4 1.4 1.4 1.4 1.4 1.4 1.4 1.4 1.4 1.4 1.4 1.4 1.4 1.4 1.4 1.4 1.4 1.4 1.4 1.4 1.4 1.4 1.4 1.4 1.4 1.4 1.4 1.4 1.4 1.4 1.4 1.4 1.4 1.4 1.4 1.4 1.4 1.4 1.4 1.4 1.4 1.4 1.4 1.4 1.4 1.4 1.4 1.4 1.4 1.4 1.4 1.4 1.4 1.4 1.4 1.4 1.4 1.4 1.4 1.4 1.4 1.4 </DataArray>
</PointData>
<CellData/>
</Piece>
</UnstructuredGrid>
</VTKFile>
