<?xml version="1.0" ?>
<VTKFile byte_order="LittleEndian" type="UnstructuredGrid" version="0.1">
<UnstructuredGrid>
<Piece NumberOfCells="0" NumberOfPoints="273">
<Points>
<DataArray NumberOfComponents="3" format="ascii" type="Float32">0 0 0 6.8625871867163051 2.927402071602712 2 16.016053934932863 1.1549357228216868 2 25.140647299577889 8.0738564355402733 2 32.55371428250826 1.1549357228216868 2 36.585037871199404 12.113061314880293 2 44.904755155418719 3.4093303025727182 2 44.104861421030954 10.079258656007429 2 52.671598285860362 1.1549357228216868 2 53.993711900574716 5.4265461986446262 2 61.627239514055859 6.3977933124650033 2 71.29897923069899 1.1549357228216868 2 74.15600308609487 11.515092214204717 2 75.078951619071248 6.9367026133039067 2 81.345998874298274 8.9356647654532289 2 87.926843081832999 4.4586571237136621 2 89.911906447990901 9.305606299782319 2 93.827848493346522 6.1967232417138165 2 3.7901119162943648 1.1549357228216868 2 14.256156509000771 1.1549357228216868 2 23.11823124567157 2.9195919986213679 2 33.219876147372062 12.884773094312308 2 37.27469798064098 2.2880164000312044 2 40.98967430101824 9.1964244248025118 2 49.363604172418995 1.1549357228216868 2 49.881611814000877 9.7766811594245606 2 58.299524732146878 8.8769691363951715 2 62.073186231195386 3.080185313946449 2 69.678385299291122 10.482920610504914 2 71.681629562069276 6.9551049113387808 2 80.488909930063244 1.1549357228216868 2 83.411679642626808 3.6313995178511456 2 85.555892888369854 10.725653257184106 2 92.999306370508179 1.1549357228216868 2 92.815919950957465 12.059095388236141 2 6.3564184366545877 6.9882497382756945 2 16.290118836310839 7.8536253502911473 2 24.081612237594268 4.4663809325326636 2 32.11166188018808 7.0750136628551852 2 39.005152307948848 9.5995594180070682 2 41.493284138447947 3.0141887436604726 2 49.129313581620444 7.938352779917226 2 52.373562285713646 3.1965869135776646 2 55.945592235538875 1.1549357228216868 2 66.514437581117946 10.993112630844987 2 66.046814340286417 3.2214511959396313 2 76.197234232840856 11.72560658699644 2 78.94730745468658 12.40927939724306 2 78.950061126062337 4.9289856343220979 2 86.790059000208615 1.1549357228216868 2 86.67678883462375 8.8929452417121517 2 94.435375770036316 1.1549357228216868 2 5.3445736781533437 5.0533396232090722 2 13.869643482576585 7.6460982999412765 2 22.148376241943744 4.9191199686461511 2 35.584314060623164 5.4602243316627774 2 34.047060082683331 4.2957440816355126 2 46.105995203088263 1.1549357228216868 2 46.328330787404724 4.6320593964162429 2 53.082041093403831 9.6154063802105352 2 57.624802584661026 4.6847875276699584 2 60.325544433297949 2.6057445928652943 2 67.543571244894565 4.5226664000068153 2 72.923239355090743 2.7500612223578003 2 74.919189774857884 2.7691310949809984 2 81.685250696964061 2.5786130115785713 2 87.277341103402151 6.8945686952449465 2 88.676825634346457 5.932538384319396 2 93.403022373888348 9.8990886931999018 2 7.3847747207089718 5.0087278798700678 2 14.757315551144281 3.5689487677476048 2 21.764550312197816 6.8821893375647676 2 30.913267426460671 1.1549357228216868 2 36.304760144090785 7.6116721796260078 2 41.95654999221258 1.1549357228216868 2 42.384872977215181 11.296204809599521 2 53.986129135480645 3.3131247723553612 2 56.928053717159294 6.4286439999484219 2 62.565139864171186 10.321492531242878 2 69.722650796073538 1.1549357228216868 2 73.406674747814293 7.6391463102674964 2 73.886997660564489 4.0762656584936776 2 83.592705586771018 11.719671409563089 2 89.30705007051705 3.1268701126808693 2 91.416452583847288 8.2658076029659497 2 91.955953978846182 6.0759827494390874 2 1.1549357228216868 3.9536112008727118 2 12.325766594628952 1.1549357228216868 2 20.136278847294349 1.1549357228216868 2 33.465474416600557 8.6669433583566686 2 35.971247430177883 3.5031940295866408 2 44.434300755778423 7.7221974660598347 2 50.190512655733173 4.400574413082051 2 51.364851755258528 8.481798324834454 2 56.016740072666529 12.829873560083048 2 64.18272845411866 4.9493520194252314 2 70.237933738693869 8.5697006558559856 2 69.686202323728978 4.2481308946906662 2 78.320890323404015 2.8251861875944018 2 80.829003147206123 6.8171326589729411 2 82.995076049004652 9.761440763132315 2 93.613152477473889 4.5775579346479001 2 94.692865757341181 13.755375531829479 2 9.6783242817995969 7.7379387019778285 2 18.106871905631095 4.3513329033045531 2 25.280726188828087 1.1549357228216868 2 31.260695431735453 3.2567482551443079 2 39.943178313438054 7.6216606821383897 2 42.55329888386747 6.9383484123556398 2 46.646239100964038 11.325618867211308 2 51.014189299053875 1.1549357228216868 2 59.181503544023968 1.1549357228216868 2 63.377658537614387 6.5536255049563019 2 68.10136122277649 1.1549357228216868 2 73.406754350157996 14.309970097332867 2 75.890124029333904 9.539339145714024 2 78.032150037426888 8.8401913449411111 2 87.769693572853839 2.6531748485447042 2 88.686188280925194 13.327308236674291 2 97.276517555875358 1.1549357228216868 2 4.0833405493335375 6.8026688591036999 2 11.539974765356757 6.5067256513424461 2 20.026675565320041 5.32819299305834 2 37.296190180633339 6.0047371135567227 2 36.136022753597864 1.1549357228216868 2 46.812997886740412 2.8435076186127399 2 46.683239598808484 7.6502655220481621 2 55.095637404069386 9.3467037548146354 2 58.52602191190168 6.534725828893607 2 60.505002532587739 4.4827902718871924 2 69.390726948129569 7.1892636789816926 2 72.854098327104325 1.1549357228216868 2 76.461010726016397 3.0572039053589548 2 79.932105460382488 3.1271161362455944 2 84.93465039862032 3.4170075321377822 2 91.780727588122758 4.4168254698378231 2 97.298588326739718 6.8724173233134644 2 5.8966549566694972 1.1549357228216868 2 16.602022158082125 3.0634414462220927 2 23.897197894240534 6.4214502378284211 2 32.881663481779889 2.9062520587642799 2 37.138645897954625 9.9928908947569912 2 43.3106419483492 2.9683800172187844 2 44.594214086515144 12.145770515890682 2 54.294639905981143 1.1549357228216868 2 53.868043511932008 7.7781719137571272 2 62.285859948451709 8.2613891076664849 2 71.25424131112365 2.9269342636909004 2 72.196839522367441 10.710189459932083 2 76.898873942236918 5.908514474379599 2 79.773724176357305 10.320811096393182 2 86.297745756167856 5.1580415249946894 2 91.520833162085083 10.421379651934313 2 95.487779863516892 6.3912989912127927 2 2.9271259891727635 2.9409557799596033 2 13.035497266415835 2.8427739939869783 2 23.670770158716877 1.1549357228216868 2 33.43140540796297 10.725886322720067 2 38.314830389611039 1.1549357228216868 2 42.705044916810763 8.8744984660758757 2 47.701432237092241 1.1549357228216868 2 51.575273777627693 10.985395671989489 2 60.032648632127263 7.9246442995652151 2 62.418791093070134 4.6783061059716768 2 69.933313742462843 12.481225714090568 2 73.440294990194502 5.7621266578949646 2 79.049506050388118 1.1549357228216868 2 81.803408433780518 4.0429482985824254 2 84.59156771043989 8.7220450814492789 2 91.516475986905107 1.1549357228216868 2 90.966276998872289 13.077746101082111 2 7.6871143946619949 8.7563351082273098 2 18.008103284658706 6.4269979526830179 2 25.342162367599073 2.9267540159261922 2 33.485058726426786 5.8598558180453599 2 40.19693573144027 11.17803514023997 2 40.562801762172334 4.5428648053617495 2 47.805823654116267 9.4476530819825211 2 52.203793064062893 4.9115950212704975 2 55.654216932092851 2.8993177440209945 2 65.849934113864393 8.8677216736882443 2 65.734025559462765 5.1917811529815285 2 75.530852843836996 13.707917739950632 2 77.744819094584784 10.645193871096879 2 78.616657046729486 6.7100393934291418 2 85.359147338900598 1.1549357228216868 2 88.003909603996107 10.229245027205577 2 95.773569277401194 2.8645565244177615 2 4.8829765113642081 3.0697184135235593 2 13.453743801083485 9.7478926207518679 2 21.179531619610987 3.1477526521775934 2 34.556057870012467 7.2154701810277224 2 34.727728387125758 2.594874747896132 2 44.751516518973951 1.1549357228216868 2 45.619219727114178 6.1368147155794768 2 54.401702419313537 11.346311077968066 2 57.413477285946058 2.7807926858553036 2 61.066966670487837 1.1549357228216868 2 67.88852790536157 2.8640933506976474 2 71.94609224546592 4.5998577475484881 2 76.026060930402707 1.1549357228216868 2 82.159339855328142 1.1549357228216868 2 85.56630750527053 7.1791236787280877 2 88.698792148754762 8.0546834390237851 2 94.559233724880926 8.2016163669695974 2 8.840980606278702 3.5508084761515701 2 14.558994916046016 5.7760839084767541 2 23.078891210057186 8.6021521529060401 2 29.818854465626991 2.5525341429861701 2 38.104291206130142 7.8453007675827831 2 43.393144532788916 1.1549357228216868 2 40.993803210331635 13.12256296579403 2 55.712855883078269 4.7169220482912992 2 55.304500338373614 6.8271242481825585 2 64.451031912561191 10.105719594588757 2 69.589383890298777 2.6783118415889375 2 73.964965345740495 9.3807663399492753 2 75.42062067331949 4.8814352126000013 2 81.372557584530739 11.73932285759342 2 90.092846998984726 4.7898480051958181 2 92.93348822204085 7.8194969690106779 2 90.299040897097029 6.7819170477333071 2 3.2049032263503738 4.86773923531387 2 10.527163347747624 1.1549357228216868 2 21.89977621479062 1.1549357228216868 2 35.291101924433228 9.3824250780960163 2 37.473195741087032 4.2797566981108837 2 44.038425174672277 5.4289448318804521 2 49.026125730146582 2.6996816940334942 2 52.495268983725566 6.8277722817699873 2 56.750131862793779 10.671380052735481 2 64.110631264595312 3.2845929577218338 2 71.892479666212708 8.9761103894649281 2 70.654808740602292 5.6899595514941428 2 77.474816916995451 1.1549357228216868 2 82.414941318903658 5.6495017058445702 2 82.869996750046553 7.5457666443386708 2 94.227380048982994 2.8990989208977456 2 94.780738687671743 11.677639275763179 2 9.5002655524316904 5.574858574714721 2 16.303460409206679 5.1850386040506269 2 26.912046458257251 1.1549357228216868 2 31.93154625266132 4.8880822825548469 2 40.990573290954941 6.2150112986071786 2 42.468136385950721 4.7645257232950344 2 48.802884050632045 11.509874920941229 2 50.909541038470103 2.7397036210980592 2 57.592301849709813 1.1549357228216868 2 64.814572183662804 7.2716335641193801 2 66.5657081474656 1.1549357228216868 2 72.126310712748676 12.646116881741486 2 76.687228003066906 7.7171866790339925 2 79.6755296283647 8.2201663123306883 2 88.476806398588806 1.1549357228216868 2 89.649693857033597 11.398608104738992 2 95.877097612856943 1.1549357228216868 2 3.3279468455915464 8.811399047214568 2 12.858599042581766 4.8601014066247137 2 19.409977949917977 3.1399301664566739 2 39.021853169967876 5.7505834544488392 2 34.260244120936015 1.1549357228216868 2 48.246008759223663 4.0859864315566039 2 45.788819819625601 9.3616935178378657 2 56.620369538153909 8.379471424532527 2 60.032919287167495 6.0367703643401178 2 58.949210334588436 3.5174998709162586 2 68.651198036350209 5.7472989052691865 2 74.40464642367273 1.1549357228216868 2 77.46352653657388 4.3600322769046835 2 80.492921220072645 5.0573434098618826 2 86.298605524144946 3.131901600935675 2 92.597067011086878 2.8706318784511939 2 96.316888270942485 8.1667275175719531 2 </DataArray>
</Points>
<Cells>
<DataArray Name="connectivity" format="ascii" type="Int32">0</DataArray>
<DataArray Name="offsets" format="ascii" type="Int32">0</DataArray>
<DataArray Name="types" format="ascii" type="UInt8">1</DataArray>
</Cells>
<PointData>
<DataArray Name="Points" NumberOfComponents="3" format="ascii" type="Float32">0 0 0 6.8625871867163051 2.927402071602712 2 16.016053934932863 1.1549357228216868 2 25.140647299577889 8.0738564355402733 2 32.55371428250826 1.1549357228216868 2 36.585037871199404 12.113061314880293 2 44.904755155418719 3.4093303025727182 2 44.104861421030954 10.079258656007429 2 52.671598285860362 1.1549357228216868 2 53.993711900574716 5.4265461986446262 2 61.627239514055859 6.3977933124650033 2 71.29897923069899 1.1549357228216868 2 74.15600308609487 11.515092214204717 2 75.078951619071248 6.9367026133039067 2 81.345998874298274 8.9356647654532289 2 87.926843081832999 4.4586571237136621 2 89.911906447990901 9.305606299782319 2 93.827848493346522 6.1967232417138165 2 3.7901119162943648 1.1549357228216868 2 14.256156509000771 1.1549357228216868 2 23.11823124567157 2.9195919986213679 2 33.219876147372062 12.884773094312308 2 37.27469798064098 2.2880164000312044 2 40.98967430101824 9.1964244248025118 2 49.363604172418995 1.1549357228216868 2 49.881611814000877 9.7766811594245606 2 58.299524732146878 8.8769691363951715 2 62.073186231195386 3.080185313946449 2 69.678385299291122 10.482920610504914 2 71.681629562069276 6.9551049113387808 2 80.488909930063244 1.1549357228216868 2 83.411679642626808 3.6313995178511456 2 85.555892888369854 10.725653257184106 2 92.999306370508179 1.1549357228216868 2 92.815919950957465 12.059095388236141 2 6.3564184366545877 6.9882497382756945 2 16.290118836310839 7.8536253502911473 2 24.081612237594268 4.4663809325326636 2 32.11166188018808 7.0750136628551852 2 39.005152307948848 9.5995594180070682 2 41.493284138447947 3.0141887436604726 2 49.129313581620444 7.938352779917226 2 52.373562285713646 3.1965869135776646 2 55.945592235538875 1.1549357228216868 2 66.514437581117946 10.993112630844987 2 66.046814340286417 3.2214511959396313 2 76.197234232840856 11.72560658699644 2 78.94730745468658 12.40927939724306 2 78.950061126062337 4.9289856343220979 2 86.790059000208615 1.1549357228216868 2 86.67678883462375 8.8929452417121517 2 94.435375770036316 1.1549357228216868 2 5.3445736781533437 5.0533396232090722 2 13.869643482576585 7.6460982999412765 2 22.148376241943744 4.9191199686461511 2 35.584314060623164 5.4602243316627774 2 34.047060082683331 4.2957440816355126 2 46.105995203088263 1.1549357228216868 2 46.328330787404724 4.6320593964162429 2 53.082041093403831 9.6154063802105352 2 57.624802584661026 4.6847875276699584 2 60.325544433297949 2.6057445928652943 2 67.543571244894565 4.5226664000068153 2 72.923239355090743 2.7500612223578003 2 74.919189774857884 2.7691310949809984 2 81.685250696964061 2.5786130115785713 2 87.277341103402151 6.8945686952449465 2 88.676825634346457 5.932538384319396 2 93.403022373888348 9.8990886931999018 2 7.3847747207089718 5.0087278798700678 2 14.757315551144281 3.5689487677476048 2 21.764550312197816 6.8821893375647676 2 30.913267426460671 1.1549357228216868 2 36.304760144090785 7.6116721796260078 2 41.95654999221258 1.1549357228216868 2 42.384872977215181 11.296204809599521 2 53.986129135480645 3.3131247723553612 2 56.928053717159294 6.4286439999484219 2 62.565139864171186 10.321492531242878 2 69.722650796073538 1.1549357228216868 2 73.406674747814293 7.6391463102674964 2 73.886997660564489 4.0762656584936776 2 83.592705586771018 11.719671409563089 2 89.30705007051705 3.1268701126808693 2 91.416452583847288 8.2658076029659497 2 91.955953978846182 6.0759827494390874 2 1.1549357228216868 3.9536112008727118 2 12.325766594628952 1.1549357228216868 2 20.136278847294349 1.1549357228216868 2 33.465474416600557 8.6669433583566686 2 35.971247430177883 3.5031940295866408 2 44.434300755778423 7.7221974660598347 2 50.190512655733173 4.400574413082051 2 51.364851755258528 8.481798324834454 2 56.016740072666529 12.829873560083048 2 64.18272845411866 4.9493520194252314 2 70.237933738693869 8.5697006558559856 2 69.686202323728978 4.2481308946906662 2 78.320890323404015 2.8251861875944018 2 80.829003147206123 6.8171326589729411 2 82.995076049004652 9.761440763132315 2 93.613152477473889 4.5775579346479001 2 94.692865757341181 13.755375531829479 2 9.6783242817995969 7.7379387019778285 2 18.106871905631095 4.3513329033045531 2 25.280726188828087 1.1549357228216868 2 31.260695431735453 3.2567482551443079 2 39.943178313438054 7.6216606821383897 2 42.55329888386747 6.9383484123556398 2 46.646239100964038 11.325618867211308 2 51.014189299053875 1.1549357228216868 2 59.181503544023968 1.1549357228216868 2 63.377658537614387 6.5536255049563019 2 68.10136122277649 1.1549357228216868 2 73.406754350157996 14.309970097332867 2 75.890124029333904 9.539339145714024 2 78.032150037426888 8.8401913449411111 2 87.769693572853839 2.6531748485447042 2 88.686188280925194 13.327308236674291 2 97.276517555875358 1.1549357228216868 2 4.0833405493335375 6.8026688591036999 2 11.539974765356757 6.5067256513424461 2 20.026675565320041 5.32819299305834 2 37.296190180633339 6.0047371135567227 2 36.136022753597864 1.1549357228216868 2 46.812997886740412 2.8435076186127399 2 46.683239598808484 7.6502655220481621 2 55.095637404069386 9.3467037548146354 2 58.52602191190168 6.534725828893607 2 60.505002532587739 4.4827902718871924 2 69.390726948129569 7.1892636789816926 2 72.854098327104325 1.1549357228216868 2 76.461010726016397 3.0572039053589548 2 79.932105460382488 3.1271161362455944 2 84.93465039862032 3.4170075321377822 2 91.780727588122758 4.4168254698378231 2 97.298588326739718 6.8724173233134644 2 5.8966549566694972 1.1549357228216868 2 16.602022158082125 3.0634414462220927 2 23.897197894240534 6.4214502378284211 2 32.881663481779889 2.9062520587642799 2 37.138645897954625 9.9928908947569912 2 43.3106419483492 2.9683800172187844 2 44.594214086515144 12.145770515890682 2 54.294639905981143 1.1549357228216868 2 53.868043511932008 7.7781719137571272 2 62.285859948451709 8.2613891076664849 2 71.25424131112365 2.9269342636909004 2 72.196839522367441 10.710189459932083 2 76.898873942236918 5.908514474379599 2 79.773724176357305 10.320811096393182 2 86.297745756167856 5.1580415249946894 2 91.520833162085083 10.421379651934313 2 95.487779863516892 6.3912989912127927 2 2.9271259891727635 2.9409557799596033 2 13.035497266415835 2.8427739939869783 2 23.670770158716877 1.1549357228216868 2 33.43140540796297 10.725886322720067 2 38.314830389611039 1.1549357228216868 2 42.705044916810763 8.8744984660758757 2 47.701432237092241 1.1549357228216868 2 51.575273777627693 10.985395671989489 2 60.032648632127263 7.9246442995652151 2 62.418791093070134 4.6783061059716768 2 69.933313742462843 12.481225714090568 2 73.440294990194502 5.7621266578949646 2 79.049506050388118 1.1549357228216868 2 81.803408433780518 4.0429482985824254 2 84.59156771043989 8.7220450814492789 2 91.516475986905107 1.1549357228216868 2 90.966276998872289 13.077746101082111 2 7.6871143946619949 8.7563351082273098 2 18.008103284658706 6.4269979526830179 2 25.342162367599073 2.9267540159261922 2 33.485058726426786 5.8598558180453599 2 40.19693573144027 11.17803514023997 2 40.562801762172334 4.5428648053617495 2 47.805823654116267 9.4476530819825211 2 52.203793064062893 4.9115950212704975 2 55.654216932092851 2.8993177440209945 2 65.849934113864393 8.8677216736882443 2 65.734025559462765 5.1917811529815285 2 75.530852843836996 13.707917739950632 2 77.744819094584784 10.645193871096879 2 78.616657046729486 6.7100393934291418 2 85.359147338900598 1.1549357228216868 2 88.003909603996107 10.229245027205577 2 95.773569277401194 2.8645565244177615 2 4.8829765113642081 3.0697184135235593 2 13.453743801083485 9.7478926207518679 2 21.179531619610987 3.1477526521775934 2 34.556057870012467 7.2154701810277224 2 34.727728387125758 2.594874747896132 2 44.751516518973951 1.1549357228216868 2 45.619219727114178 6.1368147155794768 2 54.401702419313537 11.346311077968066 2 57.413477285946058 2.7807926858553036 2 61.066966670487837 1.1549357228216868 2 67.88852790536157 2.8640933506976474 2 71.94609224546592 4.5998577475484881 2 76.026060930402707 1.1549357228216868 2 82.159339855328142 1.1549357228216868 2 85.56630750527053 7.1791236787280877 2 88.698792148754762 8.0546834390237851 2 94.559233724880926 8.2016163669695974 2 8.840980606278702 3.5508084761515701 2 14.558994916046016 5.7760839084767541 2 23.078891210057186 8.6021521529060401 2 29.818854465626991 2.5525341429861701 2 38.104291206130142 7.8453007675827831 2 43.393144532788916 1.1549357228216868 2 40.993803210331635 13.12256296579403 2 55.712855883078269 4.7169220482912992 2 55.304500338373614 6.8271242481825585 2 64.451031912561191 10.105719594588757 2 69.589383890298777 2.6783118415889375 2 73.964965345740495 9.3807663399492753 2 75.42062067331949 4.8814352126000013 2 81.372557584530739 11.73932285759342 2 90.092846998984726 4.7898480051958181 2 92.93348822204085 7.8194969690106779 2 90.299040897097029 6.7819170477333071 2 3.2049032263503738 4.86773923531387 2 10.527163347747624 1.1549357228216868 2 21.89977621479062 1.1549357228216868 2 35.291101924433228 9.3824250780960163 2 37.473195741087032 4.2797566981108837 2 44.038425174672277 5.4289448318804521 2 49.026125730146582 2.6996816940334942 2 52.495268983725566 6.8277722817699873 2 56.750131862793779 10.671380052735481 2 64.110631264595312 3.2845929577218338 2 71.892479666212708 8.9761103894649281 2 70.654808740602292 5.6899595514941428 2 77.474816916995451 1.1549357228216868 2 82.414941318903658 5.6495017058445702 2 82.869996750046553 7.5457666443386708 2 94.227380048982994 2.8990989208977456 2 94.780738687671743 11.677639275763179 2 9.5002655524316904 5.574858574714721 2 16.303460409206679 5.1850386040506269 2 26.912046458257251 1.1549357228216868 2 31.93154625266132 4.8880822825548469 2 40.990573290954941 6.2150112986071786 2 42.468136385950721 4.7645257232950344 2 48.802884050632045 11.509874920941229 2 50.909541038470103 2.7397036210980592 2 57.592301849709813 1.1549357228216868 2 64.814572183662804 7.2716335641193801 2 66.5657081474656 1.1549357228216868 2 72.126310712748676 12.646116881741486 2 76.687228003066906 7.7171866790339925 2 79.6755296283647 8.2201663123306883 2 88.476806398588806 1.1549357228216868 2 89.649693857033597 11.398608104738992 2 95.877097612856943 1.1549357228216868 2 3.3279468455915464 8.811399047214568 2 12.858599042581766 4.8601014066247137 2 19.409977949917977 3.1399301664566739 2 39.021853169967876 5.7505834544488392 2 34.260244120936015 1.1549357228216868 2 48.246008759223663 4.0859864315566039 2 45.788819819625601 9.3616935178378657 2 56.620369538153909 8.379471424532527 2 60.032919287167495 6.0367703643401178 2 58.949210334588436 3.5174998709162586 2 68.651198036350209 5.7472989052691865 2 74.40464642367273 1.1549357228216868 2 77.46352653657388 4.3600322769046835 2 80.492921220072645 5.0573434098618826 2 86.298605524144946 3.131901600935675 2 92.597067011086878 2.8706318784511939 2 96.316888270942485 8.1667275175719531 2 </DataArray>