<?xml version="1.0" ?>
<VTKFile byte_order="LittleEndian" type="UnstructuredGrid" version="0.1">
<UnstructuredGrid>
<Piece NumberOfCells="0" NumberOfPoints="9">
<Points>
<DataArray NumberOfComponents="3" format="ascii" type="Float32">31.253602445551952 3.593444638199327 2 58.365604290987989 1.31555078897 2 89.25718467740127 3.7991735745524129 2 98.68444921103 1.31555078897 2 23.934348173065498 3.5606646777160709 2 29.936889231919046 1.31555078897 2 59.782506486118919 3.6465198263691834 2 91.012641151484175 1.31555078897 2 98.68444921103 4.0040794506638457 2 </DataArray>
</Points>
<Cells>
<DataArray Name="connectivity" format="ascii" type="Int32">0</DataArray>
<DataArray Name="offsets" format="ascii" type="Int32">0</DataArray>
<DataArray Name="types" format="ascii" type="UInt8">1</DataArray>
</Cells>
<PointData>
<DataArray Name="Points" NumberOfComponents="3" format="ascii" type="Float32">31.253602445551952 3.593444638199327 2 58.365604290987989 1.31555078897 2 89.25718467740127 3.7991735745524129 2 98.68444921103 1.31555078897 2 23.934348173065498 3.5606646777160709 2 29.936889231919046 1.31555078897 2 59.782506486118919 3.6465198263691834 2 91.012641151484175 1.31555078897 2 98.68444921103 4.0040794506638457 2 </DataArray>
<DataArray Name="forces" NumberOfComponents="3" format="ascii" type="Float32">0.00020668977780179554 0.0068321525419235141 0.0 -0.011550387588513011 0.0 0.0 0.0024459968372858077 0.0071000299165456847 0.0 0.03910229698496348 0.0 0.0 -0.0021088821993065368 0.0034705729782214933 0.0 -0.0036707551271318575 -0.0045350852795699743 0.0 -0.003361034028046253 0.0064701358561240893 0.0 0.11903861254570725 0.0 0.0 1.0996853569906629e-05 2.7511222251618298e-07 0.0 </DataArray>
<DataArray Name="radii" format="ascii" type="Float32">1.31555078897 1.31555078897 1.31555078897 1.31555078897 1.31555078897 1.31555078897 1.31555078897 1.31555078897 1.31555078897 </DataArray>
</PointData>
<CellData/>
</Piece>
</UnstructuredGrid>
</VTKFile>
