<?xml version="1.0" ?>
<VTKFile byte_order="LittleEndian" type="UnstructuredGrid" version="0.1">
<UnstructuredGrid>
<Piece NumberOfCells="0" NumberOfPoints="9">
<Points>
<DataArray NumberOfComponents="3" format="ascii" type="Float32">31.306027946989349 3.1103571721945444 2 58.676385773732129 1.19055078897 2 89.073065409362997 3.3438125692786902 2 98.80944921103 1.19055078897 2 24.080928365798734 3.4396295308788294 2 29.898394146554288 1.19055078897 2 59.789337867176748 3.3082053784617753 2 90.444399973939625 1.19055078897 2 98.80944921103 3.9849824188145182 2 </DataArray>
</Points>
<Cells>
<DataArray Name="connectivity" format="ascii" type="Int32">0</DataArray>
<DataArray Name="offsets" format="ascii" type="Int32">0</DataArray>
<DataArray Name="types" format="ascii" type="UInt8">1</DataArray>
</Cells>
<PointData>
<DataArray Name="Points" NumberOfComponents="3" format="ascii" type="Float32">31.306027946989349 3.1103571721945444 2 58.676385773732129 1.19055078897 2 89.073065409362997 3.3438125692786902 2 98.80944921103 1.19055078897 2 24.080928365798734 3.4396295308788294 2 29.898394146554288 1.19055078897 2 59.789337867176748 3.3082053784617753 2 90.444399973939625 1.19055078897 2 98.80944921103 3.9849824188145182 2 </DataArray>
<DataArray Name="forces" NumberOfComponents="3" format="ascii" type="Float32">-0.00096284493828591449 0.0031266872149716528 0.0 -0.021260328740049458 -0.00049933501196047618 0.0 0.012813333400967316 0.026711389979841581 0.0 0.0 0.0 0.0 0.0 0.0 0.0 0.00035238992315493101 -0.0013812339029153965 0.0 0.00025556388985958537 0.00049933501196047618 0.0 0.075839810529600094 0.0 0.0 0.044628407731520894 0.012870452173874563 0.0 </DataArray>
<DataArray Name="radii" format="ascii" type="Float32">1.19055078897 1.19055078897 1.19055078897 1.19055078897 1.19055078897 1.19055078897 1.19055078897 1.19055078897 1.19055078897 </DataArray>
</PointData>
<CellData/>
</Piece>
</UnstructuredGrid>
</VTKFile>
