<?xml version="1.0" ?>
<VTKFile byte_order="LittleEndian" type="UnstructuredGrid" version="0.1">
<UnstructuredGrid>
<Piece NumberOfCells="0" NumberOfPoints="35">
<Points>
<DataArray NumberOfComponents="3" format="ascii" type="Float32">0 0 0 6.8476699885626244 1.31555078897 2 16.24946970611208 1.7474862319245559 2 27.62053794916422 2.5499470846214103 2 32.57157309149369 1.31555078897 2 37.14381591599529 3.0854528850527068 2 41.663630473916776 1.31555078897 2 46.322630670063027 3.5768622865059228 2 52.889559196175654 1.31555078897 2 55.745632771863946 1.31555078897 2 63.297010601651074 2.5577822278042532 2 70.799644951978365 1.31555078897 2 74.442133512440904 4.6621160913825097 2 75.801548125476302 2.3735492215166176 2 79.556294560034928 3.6919536052112099 2 88.298523393292001 1.31555078897 2 91.944654608202725 3.7610915936039602 2 96.151996872656554 1.31555078897 2 4.2414564334177687 1.6729354137289747 2 13.654663109439339 1.31555078897 2 25.298957940904728 1.31555078897 2 33.884462395404 3.5910807426268869 2 35.198637103425057 1.31555078897 2 44.196382318384998 2.0313924628058175 2 47.661754635073741 1.31555078897 2 54.318264610769717 3.5248031674917488 2 56.945159366539961 3.9008852409879471 2 61.00688440224711 1.31555078897 2 72.020150562446972 3.6364784694819434 2 73.35183471617205 1.31555078897 2 78.061515526162012 1.31555078897 2 80.766348402364741 1.31555078897 2 85.876393236647345 1.7375649694599207 2 93.47892694297056 1.31555078897 2 96.054108269749022 3.9426743506994342 2 </DataArray>
</Points>
<Cells>
<DataArray Name="connectivity" format="ascii" type="Int32">0</DataArray>
<DataArray Name="offsets" format="ascii" type="Int32">0</DataArray>
<DataArray Name="types" format="ascii" type="UInt8">1</DataArray>
</Cells>
<PointData>
<DataArray Name="Points" NumberOfComponents="3" format="ascii" type="Float32">0 0 0 6.8476699885626244 1.31555078897 2 16.24946970611208 1.7474862319245559 2 27.62053794916422 2.5499470846214103 2 32.57157309149369 1.31555078897 2 37.14381591599529 3.0854528850527068 2 41.663630473916776 1.31555078897 2 46.322630670063027 3.5768622865059228 2 52.889559196175654 1.31555078897 2 55.745632771863946 1.31555078897 2 63.297010601651074 2.5577822278042532 2 70.799644951978365 1.31555078897 2 74.442133512440904 4.6621160913825097 2 75.801548125476302 2.3735492215166176 2 79.556294560034928 3.6919536052112099 2 88.298523393292001 1.31555078897 2 91.944654608202725 3.7610915936039602 2 96.151996872656554 1.31555078897 2 4.2414564334177687 1.6729354137289747 2 13.654663109439339 1.31555078897 2 25.298957940904728 1.31555078897 2 33.884462395404 3.5910807426268869 2 35.198637103425057 1.31555078897 2 44.196382318384998 2.0313924628058175 2 47.661754635073741 1.31555078897 2 54.318264610769717 3.5248031674917488 2 56.945159366539961 3.9008852409879471 2 61.00688440224711 1.31555078897 2 72.020150562446972 3.6364784694819434 2 73.35183471617205 1.31555078897 2 78.061515526162012 1.31555078897 2 80.766348402364741 1.31555078897 2 85.876393236647345 1.7375649694599207 2 93.47892694297056 1.31555078897 2 96.054108269749022 3.9426743506994342 2 </DataArray>
<DataArray Name="forces" NumberOfComponents="3" format="ascii" type="Float32">0 0 0 0.0005972662954847242 -8.2539411908284313e-05 0.0 -2.6008556812753022e-05 0.00024799248606137842 0.0 0.00196848640083944 0.0029273506319361983 0.0 0.0045927916142589394 -0.0043360330302506262 0.0 0.00073155106289833887 0.0058016697794037357 0.0 -0.0027653804000782739 -0.00099936419984051022 0.0 -0.0018312183480403822 0.0030962527816355109 0.0 -0.00096585432694425209 -0.0023602884588889783 0.0 0.003578404409609528 -0.0055474596235898519 0.0 -0.02568027826386355 0.014801166035811468 0.0 0.053413976541130531 0.00032420013331327374 0.0 -0.01473091795859066 0.034754977238079882 0.0 0.078484364566620543 -0.0058321047449226282 0.0 -0.0040003639443804348 0.0084998564271028931 0.0 -0.12148460938299305 -0.0071000299165456847 0.0 0.0 0.0 0.0 0.070883854262517657 -0.0052349712603791711 0.0 2.6677247759527103e-05 0.00017311260967650503 0.0 -0.00071125101938250708 -0.00011914949532750028 0.0 -0.0016246423431708307 -0.0054589392152166964 0.0 -0.00010460825337575729 0.0023812038931783118 0.0 -0.0027743394594507698 -0.0044809355273473005 0.0 0.0035346985839874012 0.0010039396171380474 0.0 2.7643339308515468e-05 -0.0030855220151095038 0.0 -0.0020462515045101609 0.0079111158062529392 0.0 0.0 0.0 0.0 0.014315418381086501 -0.0067862956787087319 0.0 -0.0040716146979341162 -0.0016666098430862775 0.0 -0.059681831910095767 -0.027256262650070973 0.0 -0.1034670392312611 0.0 0.0 0.10746740317564155 -0.0084998564271028931 0.0 0.117896018411624 0.020292586373481105 0.0 -0.1099098507601175 0.0 0.0 -8.7297340933550354e-05 0.005234696148156655 0.0 </DataArray>
<DataArray Name="radii" format="ascii" type="Float32">0 1.31555078897 1.31555078897 1.31555078897 1.31555078897 1.31555078897 1.31555078897 1.31555078897 1.31555078897 1.31555078897 1.31555078897 1.31555078897 1.31555078897 1.31555078897 1.31555078897 1.31555078897 1.31555078897 1.31555078897 1.31555078897 1.31555078897 1.31555078897 1.31555078897 1.31555078897 1.31555078897 1.31555078897 1.31555078897 1.31555078897 1.31555078897 1.31555078897 1.31555078897 1.31555078897 1.31555078897 1.31555078897 1.31555078897 1.31555078897 </DataArray>
</PointData>
<CellData/>
</Piece>
</UnstructuredGrid>
</VTKFile>
