<?xml version="1.0" ?>
<VTKFile byte_order="LittleEndian" type="UnstructuredGrid" version="0.1">
<UnstructuredGrid>
<Piece NumberOfCells="0" NumberOfPoints="256">
<Points>
<DataArray NumberOfComponents="3" format="ascii" type="Float32">1.5999999999999999 6.5937938851488314 2 9.8971332507569407 9.0156759776126059 2 17.827370522754936 6.3651503514742656 2 27.897517777623403 14.885670503639057 2 8.5209641982493345 6.5718180639296992 2 13.21029529391086 13.280224107950502 2 15.31214828734428 15.261754184685296 2 23.649628146071372 8.3178736687591002 2 1.5999999999999999 15.098503509837823 2 13.555525836501252 19.054761907070649 2 22.908413418632268 15.156463893961595 2 24.292097236988308 3.5097746783389017 2 4.4317086328716808 5.4945752423944905 2 10.959180214810324 12.450061465604634 2 17.820548210718172 10.109206740587581 2 25.945865094392406 14.410262574949591 2 4.2307017595049317 1.5999999999999999 2 13.636079321723184 1.5999999999999999 2 20.598410440888319 3.8097742620861341 2 27.653591725561984 10.371333353142651 2 8.8139033470123795 13.849431090298147 2 10.755168533289083 17.927825475932533 2 19.146022252594641 10.294289988736471 2 22.861249479068807 1.5999999999999999 2 4.4057640914329124 15.694270339788243 2 14.95262525646006 6.9571509855531311 2 20.037214431296622 17.50347403272664 2 27.965621932592008 5.0553858956123863 2 6.9094097877664424 2.142248444461671 2 11.274730045227821 1.5999999999999999 2 18.287325882360641 1.5999999999999999 2 23.241419860690868 20.292835644835332 2 1.5999999999999999 10.740540440244072 2 9.2218675398870307 4.0447079914563409 2 19.937508999302551 2.3409369317939226 2 30.045468357784131 21.976589072590652 2 5.4258858629761511 9.1510285406189222 2 13.864152415550484 9.1773403542295959 2 18.589331738160812 12.529362725823693 2 23.842169053237011 10.00275009213099 2 3.7193719525004645 13.989020199068857 2 14.977139160807504 20.187719301166457 2 21.500154530143842 12.675397141892731 2 25.352844397299219 3.9358189000073169 2 4.4840391517396583 7.8839642874160907 2 8.4018820519965676 9.4304446384230847 2 15.924731095461096 7.9712156466542083 2 25.424700840529262 11.982877285021452 2 2.2477619170597642 3.8381630946294889 2 11.196431239060411 6.2015798167568557 2 21.06542213404316 8.3603338024470357 2 26.473000817532927 8.231085958951418 2 3.5818939802257437 20.521915179759592 2 7.6462358656913887 22.028095347805777 2 18.775656289387832 16.035305797013464 2 22.645618035716623 5.7291054013939124 2 3.0877491246517685 15.981581088200212 2 14.819700199468201 10.648246336686862 2 21.718424911797761 22.083943962885872 2 26.728138132929754 1.5999999999999999 2 6.2979322518051699 3.8386616184707463 2 7.5838000740675433 3.9190470789196494 2 14.609825962296689 1.5999999999999999 2 25.639020700705096 20.781541760804615 2 2.0460398229973666 5.888805905144725 2 8.7974374340684971 10.857014991306787 2 17.649103135954377 4.0658710947861794 2 30.383117672054865 16.07369730196589 2 6.0289017260422879 5.1406544918514534 2 11.530856547953942 10.987181123708648 2 15.731278314326159 12.43969172876224 2 25.88474717975204 6.688684604883453 2 1.5999999999999999 12.390291932714323 2 13.603894733289648 14.852715618318948 2 24.481495672342454 14.584110931758955 2 25.643685763450151 1.5999999999999999 2 3.4731260337262904 4.5803783073928122 2 10.292293117421227 14.301698004791845 2 18.942550930745259 7.2402745180553039 2 26.501547277984471 15.907976685832478 2 2.216263248804796 1.5999999999999999 2 12.886443868581619 2.4633778243225617 2 19.26888602792685 4.2023620725650561 2 28.506550608849174 11.888995373094698 2 7.3043406199997651 15.099352847445669 2 11.521272798977174 19.676316310627243 2 18.026085340026778 14.316156631407127 2 21.895428803205665 4.3465274976470267 2 5.3244994533162409 13.202109063915795 2 16.103830147821515 4.0153137875645646 2 20.742701279574703 15.393340233560922 2 28.251049742733397 3.9647505952480704 2 7.8074388513886364 1.5999999999999999 2 10.624763028077199 4.2179023974251457 2 17.158397297939551 1.5999999999999999 2 21.192302613585817 19.431029570607418 2 1.5999999999999999 7.6821045885645711 2 9.9892949375437254 6.9619540626585126 2 20.689779905305247 1.5999999999999999 2 27.538024183829158 21.562353842158586 2 6.9182654807888264 9.2569546183782947 2 12.50666950862205 8.5310368148551348 2 16.26077374590097 10.871791349236018 2 22.370236798169444 8.6162900603010151 2 4.0681477361623877 12.590992956209806 2 14.90065269756292 22.842349791606317 2 23.062269276585706 12.942648734265635 2 24.164736014727815 5.2747312856954194 2 2.1295590396338469 8.7343954324754076 2 7.9877748195957778 12.153999086903671 2 16.306322661539621 6.4750700905398748 2 25.051143697554171 8.9518302021586162 2 1.5999999999999999 1.5999999999999999 2 13.625682022492363 6.5037913652759762 2 21.836971006728835 11.245293196548943 2 28.858897977538174 7.7056003435808282 2 5.9059980927949862 19.804279134091271 2 9.1998147520616698 17.65550604444859 2 16.946113305467371 13.268583023578978 2 21.349071871707967 6.2802410429092621 2 1.5999999999999999 20.178760574232832 2 14.183263186933218 11.910669889423025 2 19.440079723152035 20.553201217384718 2 27.758925012656334 1.5999999999999999 2 5.4583644181899054 6.5548588299806516 2 8.9985827845973798 1.5999999999999999 2 14.887211489601034 4.3011153815864569 2 26.590938256719632 18.324165777457697 2 1.5999999999999999 5.0144059398438028 2 11.054565081108455 8.0097544502075095 2 17.365430595792954 7.6946198744081764 2 27.929793616741261 16.774649046893593 2 6.9899562640910888 6.5601363487727644 2 11.788780082795434 13.805855245482038 2 15.672551325311648 17.758432278505172 2 23.905650069543089 6.596404941012489 2 1.5999999999999999 16.936074685455264 2 12.671298475418512 17.333871159018017 2 23.732282904256127 16.379006203324341 2 23.817912974776512 1.5999999999999999 2 4.8411259144003251 4.165815490094289 2 9.565292396789113 12.279011196959026 2 18.364700067942639 8.6359500489579464 2 26.779102906570941 13.012818839151626 2 5.3224149793590305 1.5999999999999999 2 12.384511779480148 1.5999999999999999 2 20.672956730681712 5.0224965442360476 2 26.657097881189873 11.44294290996686 2 7.2070936902079445 13.425345182326467 2 12.22000230792705 15.675997681273184 2 20.832877949678291 9.9296609465944972 2 23.02510523338859 3.0212963866752225 2 5.8113121468169142 14.86176314954211 2 15.107743475892127 5.5289598869842429 2 18.692037571728044 18.501772056429747 2 27.216231560719862 7.029079571830966 2 6.3326625813108546 1.5999999999999999 2 11.211916541826795 2.7417846865105258 2 17.001524055496002 2.621542815364323 2 24.725615132012127 18.834661690308593 2 2.8536666720659629 10.380125847115911 2 8.7043570859773265 5.1399793248250196 2 19.321486872733448 1.5999999999999999 2 29.546938358214057 19.516821952718704 2 5.6176241840964121 10.746299055079513 2 13.774405706142895 7.785178783404314 2 20.08664163998386 11.31266921630348 2 23.517003370704781 11.494986636670301 2 1.5999999999999999 13.818193189221365 2 16.991956103713399 19.372931654519164 2 19.963943885220214 12.769762786915232 2 26.728526899450227 5.4104125331723614 2 3.2675266267452852 7.7136915735548248 2 9.0031731238436148 7.9390739269602735 2 16.682338814407615 9.2356969332475813 2 25.065355771017234 10.559303357316928 2 1.5999999999999999 3.7956671836723856 2 12.121675745748743 6.9948754018241024 2 19.746694956651176 8.8036123353007305 2 27.840636185836484 8.8156925404909785 2 4.8955455633916829 22.494852364410157 2 7.9658527793424465 19.264611973069513 2 17.30305724495307 17.000369599291403 2 23.216156405235214 4.3190033522384965 2 4.3452887519101173 18.168871423723864 2 15.268611054081919 9.2221471579085126 2 19.389670285259147 23.337433356778863 2 26.067812543869991 2.7512282482299244 2 5.0674072303124387 2.6899982150809669 2 9.7862476615848344 2.742418537306115 2 14.259423890639807 3.1510744684266312 2 24.428023528843624 22.876121670051798 2 3.7853916094600795 6.4678059132225014 2 10.161554960326567 10.415685750712171 2 18.525872970612618 2.9968269270130818 2 29.327452758433633 17.376917301493148 2 7.3648841814270787 5.2105215189164582 2 11.493704646793871 9.528579322804676 2 14.926462662207253 13.666278483307192 2 24.879782258390929 7.5069922541847207 2 2.5750412238271827 12.068654150446275 2 14.418049175386253 16.744675310106775 2 24.479845497089954 13.091342334900808 2 24.727004259505449 1.5999999999999999 2 3.820939180623895 3.2864744208464658 2 10.477470790706253 15.896022245004774 2 19.5942578563821 5.8835316928794654 2 25.191712840756171 16.954516291156533 2 3.3413717347598562 1.5999999999999999 2 12.104603929008972 3.8631436575860407 2 18.370724394110407 5.1443505794630813 2 28.196050211987469 13.324984774391208 2 8.6314759089388886 15.806134394736205 2 9.7575824314739226 20.70417222670044 2 19.648589556068259 14.381856171407284 2 21.535351464971466 2.6609502575892638 2 6.2622202352398277 12.071524645634362 2 15.498244216577939 2.334934081241729 2 21.552024376606909 16.79270176251579 2 26.770805856373943 3.9694530558826466 2 8.2667029052594927 2.6523319260930056 2 11.905312534957078 5.0258123471949103 2 15.967604902849947 1.5999999999999999 2 22.726945166511964 18.056296795194385 2 1.5999999999999999 9.3506347868935205 2 10.005399333148837 5.4404909012356999 2 21.845719231438462 1.5999999999999999 2 28.177493063323059 24.027693105851931 2 7.5611619268883512 7.8980329427857745 2 13.125580830219437 10.313614197120232 2 17.516769247687339 11.572890221505634 2 22.438959597219974 7.2054427964595371 2 4.2335093350684385 10.911516684873522 2 12.477664606869295 21.803678785217922 2 21.790391067662107 14.108468499232101 2 25.440521885062356 5.3535262213116654 2 4.1379213436113735 9.4366694027182891 2 7.158862836179348 10.62602761148519 2 16.660139691232985 5.095824371397744 2 26.412292705265006 9.649092774221927 2 1.5999999999999999 2.4379804257192288 2 13.510679617090046 4.2696547552248258 2 22.401541146766384 10.022230971393206 2 28.386365294609657 6.5056737750297593 2 5.7810959538083795 17.078095919692281 2 7.2270740079197076 17.325463065076747 2 16.795633157549261 15.268314800806927 2 20.383758019441629 7.1305836605075914 2 2.1516236742962578 18.249218806253833 2 12.662353451942309 11.84366517849492 2 17.24010679207376 21.753770377374344 2 27.990527524946607 2.6657097349668279 2 6.1052269154103005 7.8044499496817386 2 10.127164884354633 1.5999999999999999 2 13.188493935531815 5.4371451511492443 2 27.834381580970017 19.324142395638692 2 </DataArray>
</Points>
<Cells>
<DataArray Name="connectivity" format="ascii" type="Int32">0</DataArray>
<DataArray Name="offsets" format="ascii" type="Int32">0</DataArray>
<DataArray Name="types" format="ascii" type="UInt8">1</DataArray>
</Cells>
<PointData>
<DataArray Name="Points" NumberOfComponents="3" format="ascii" type="Float32">1.5999999999999999 6.5937938851488314 2 9.8971332507569407 9.0156759776126059 2 17.827370522754936 6.3651503514742656 2 27.897517777623403 14.885670503639057 2 8.5209641982493345 6.5718180639296992 2 13.21029529391086 13.280224107950502 2 15.31214828734428 15.261754184685296 2 23.649628146071372 8.3178736687591002 2 1.5999999999999999 15.098503509837823 2 13.555525836501252 19.054761907070649 2 22.908413418632268 15.156463893961595 2 24.292097236988308 3.5097746783389017 2 4.4317086328716808 5.4945752423944905 2 10.959180214810324 12.450061465604634 2 17.820548210718172 10.109206740587581 2 25.945865094392406 14.410262574949591 2 4.2307017595049317 1.5999999999999999 2 13.636079321723184 1.5999999999999999 2 20.598410440888319 3.8097742620861341 2 27.653591725561984 10.371333353142651 2 8.8139033470123795 13.849431090298147 2 10.755168533289083 17.927825475932533 2 19.146022252594641 10.294289988736471 2 22.861249479068807 1.5999999999999999 2 4.4057640914329124 15.694270339788243 2 14.95262525646006 6.9571509855531311 2 20.037214431296622 17.50347403272664 2 27.965621932592008 5.0553858956123863 2 6.9094097877664424 2.142248444461671 2 11.274730045227821 1.5999999999999999 2 18.287325882360641 1.5999999999999999 2 23.241419860690868 20.292835644835332 2 1.5999999999999999 10.740540440244072 2 9.2218675398870307 4.0447079914563409 2 19.937508999302551 2.3409369317939226 2 30.045468357784131 21.976589072590652 2 5.4258858629761511 9.1510285406189222 2 13.864152415550484 9.1773403542295959 2 18.589331738160812 12.529362725823693 2 23.842169053237011 10.00275009213099 2 3.7193719525004645 13.989020199068857 2 14.977139160807504 20.187719301166457 2 21.500154530143842 12.675397141892731 2 25.352844397299219 3.9358189000073169 2 4.4840391517396583 7.8839642874160907 2 8.4018820519965676 9.4304446384230847 2 15.924731095461096 7.9712156466542083 2 25.424700840529262 11.982877285021452 2 2.2477619170597642 3.8381630946294889 2 11.196431239060411 6.2015798167568557 2 21.06542213404316 8.3603338024470357 2 26.473000817532927 8.231085958951418 2 3.5818939802257437 20.521915179759592 2 7.6462358656913887 22.028095347805777 2 18.775656289387832 16.035305797013464 2 22.645618035716623 5.7291054013939124 2 3.0877491246517685 15.981581088200212 2 14.819700199468201 10.648246336686862 2 21.718424911797761 22.083943962885872 2 26.728138132929754 1.5999999999999999 2 6.2979322518051699 3.8386616184707463 2 7.5838000740675433 3.9190470789196494 2 14.609825962296689 1.5999999999999999 2 25.639020700705096 20.781541760804615 2 2.0460398229973666 5.888805905144725 2 8.7974374340684971 10.857014991306787 2 17.649103135954377 4.0658710947861794 2 30.383117672054865 16.07369730196589 2 6.0289017260422879 5.1406544918514534 2 11.530856547953942 10.987181123708648 2 15.731278314326159 12.43969172876224 2 25.88474717975204 6.688684604883453 2 1.5999999999999999 12.390291932714323 2 13.603894733289648 14.852715618318948 2 24.481495672342454 14.584110931758955 2 25.643685763450151 1.5999999999999999 2 3.4731260337262904 4.5803783073928122 2 10.292293117421227 14.301698004791845 2 18.942550930745259 7.2402745180553039 2 26.501547277984471 15.907976685832478 2 2.216263248804796 1.5999999999999999 2 12.886443868581619 2.4633778243225617 2 19.26888602792685 4.2023620725650561 2 28.506550608849174 11.888995373094698 2 7.3043406199997651 15.099352847445669 2 11.521272798977174 19.676316310627243 2 18.026085340026778 14.316156631407127 2 21.895428803205665 4.3465274976470267 2 5.3244994533162409 13.202109063915795 2 16.103830147821515 4.0153137875645646 2 20.742701279574703 15.393340233560922 2 28.251049742733397 3.9647505952480704 2 7.8074388513886364 1.5999999999999999 2 10.624763028077199 4.2179023974251457 2 17.158397297939551 1.5999999999999999 2 21.192302613585817 19.431029570607418 2 1.5999999999999999 7.6821045885645711 2 9.9892949375437254 6.9619540626585126 2 20.689779905305247 1.5999999999999999 2 27.538024183829158 21.562353842158586 2 6.9182654807888264 9.2569546183782947 2 12.50666950862205 8.5310368148551348 2 16.26077374590097 10.871791349236018 2 22.370236798169444 8.6162900603010151 2 4.0681477361623877 12.590992956209806 2 14.90065269756292 22.842349791606317 2 23.062269276585706 12.942648734265635 2 24.164736014727815 5.2747312856954194 2 2.1295590396338469 8.7343954324754076 2 7.9877748195957778 12.153999086903671 2 16.306322661539621 6.4750700905398748 2 25.051143697554171 8.9518302021586162 2 1.5999999999999999 1.5999999999999999 2 13.625682022492363 6.5037913652759762 2 21.836971006728835 11.245293196548943 2 28.858897977538174 7.7056003435808282 2 5.9059980927949862 19.804279134091271 2 9.1998147520616698 17.65550604444859 2 16.946113305467371 13.268583023578978 2 21.349071871707967 6.2802410429092621 2 1.5999999999999999 20.178760574232832 2 14.183263186933218 11.910669889423025 2 19.440079723152035 20.553201217384718 2 27.758925012656334 1.5999999999999999 2 5.4583644181899054 6.5548588299806516 2 8.9985827845973798 1.5999999999999999 2 14.887211489601034 4.3011153815864569 2 26.590938256719632 18.324165777457697 2 1.5999999999999999 5.0144059398438028 2 11.054565081108455 8.0097544502075095 2 17.365430595792954 7.6946198744081764 2 27.929793616741261 16.774649046893593 2 6.9899562640910888 6.5601363487727644 2 11.788780082795434 13.805855245482038 2 15.672551325311648 17.758432278505172 2 23.905650069543089 6.596404941012489 2 1.5999999999999999 16.936074685455264 2 12.671298475418512 17.333871159018017 2 23.732282904256127 16.379006203324341 2 23.817912974776512 1.5999999999999999 2 4.8411259144003251 4.165815490094289 2 9.565292396789113 12.279011196959026 2 18.364700067942639 8.6359500489579464 2 26.779102906570941 13.012818839151626 2 5.3224149793590305 1.5999999999999999 2 12.384511779480148 1.5999999999999999 2 20.672956730681712 5.0224965442360476 2 26.657097881189873 11.44294290996686 2 7.2070936902079445 13.425345182326467 2 12.22000230792705 15.675997681273184 2 20.832877949678291 9.9296609465944972 2 23.02510523338859 3.0212963866752225 2 5.8113121468169142 14.86176314954211 2 15.107743475892127 5.5289598869842429 2 18.692037571728044 18.501772056429747 2 27.216231560719862 7.029079571830966 2 6.3326625813108546 1.5999999999999999 2 11.211916541826795 2.7417846865105258 2 17.001524055496002 2.621542815364323 2 24.725615132012127 18.834661690308593 2 2.8536666720659629 10.380125847115911 2 8.7043570859773265 5.1399793248250196 2 19.321486872733448 1.5999999999999999 2 29.546938358214057 19.516821952718704 2 5.6176241840964121 10.746299055079513 2 13.774405706142895 7.785178783404314 2 20.08664163998386 11.31266921630348 2 23.517003370704781 11.494986636670301 2 1.5999999999999999 13.818193189221365 2 16.991956103713399 19.372931654519164 2 19.963943885220214 12.769762786915232 2 26.728526899450227 5.4104125331723614 2 3.2675266267452852 7.7136915735548248 2 9.0031731238436148 7.9390739269602735 2 16.682338814407615 9.2356969332475813 2 25.065355771017234 10.559303357316928 2 1.5999999999999999 3.7956671836723856 2 12.121675745748743 6.9948754018241024 2 19.746694956651176 8.8036123353007305 2 27.840636185836484 8.8156925404909785 2 4.8955455633916829 22.494852364410157 2 7.9658527793424465 19.264611973069513 2 17.30305724495307 17.000369599291403 2 23.216156405235214 4.3190033522384965 2 4.3452887519101173 18.168871423723864 2 15.268611054081919 9.2221471579085126 2 19.389670285259147 23.337433356778863 2 26.067812543869991 2.7512282482299244 2 5.0674072303124387 2.6899982150809669 2 9.7862476615848344 2.742418537306115 2 14.259423890639807 3.1510744684266312 2 24.428023528843624 22.876121670051798 2 3.7853916094600795 6.4678059132225014 2 10.161554960326567 10.415685750712171 2 18.525872970612618 2.9968269270130818 2 29.327452758433633 17.376917301493148 2 7.3648841814270787 5.2105215189164582 2 11.493704646793871 9.528579322804676 2 14.926462662207253 13.666278483307192 2 24.879782258390929 7.5069922541847207 2 2.5750412238271827 12.068654150446275 2 14.418049175386253 16.744675310106775 2 24.479845497089954 13.091342334900808 2 24.727004259505449 1.5999999999999999 2 3.820939180623895 3.2864744208464658 2 10.477470790706253 15.896022245004774 2 19.5942578563821 5.8835316928794654 2 25.191712840756171 16.954516291156533 2 3.3413717347598562 1.5999999999999999 2 12.104603929008972 3.8631436575860407 2 18.370724394110407 5.1443505794630813 2 28.196050211987469 13.324984774391208 2 8.6314759089388886 15.806134394736205 2 9.7575824314739226 20.70417222670044 2 19.648589556068259 14.381856171407284 2 21.535351464971466 2.6609502575892638 2 6.2622202352398277 12.071524645634362 2 15.498244216577939 2.334934081241729 2 21.552024376606909 16.79270176251579 2 26.770805856373943 3.9694530558826466 2 8.2667029052594927 2.6523319260930056 2 11.905312534957078 5.0258123471949103 2 15.967604902849947 1.5999999999999999 2 22.726945166511964 18.056296795194385 2 1.5999999999999999 9.3506347868935205 2 10.005399333148837 5.4404909012356999 2 21.845719231438462 1.5999999999999999 2 28.177493063323059 24.027693105851931 2 7.5611619268883512 7.8980329427857745 2 13.125580830219437 10.313614197120232 2 17.516769247687339 11.572890221505634 2 22.438959597219974 7.2054427964595371 2 4.2335093350684385 10.911516684873522 2 12.477664606869295 21.803678785217922 2 21.790391067662107 14.108468499232101 2 25.440521885062356 5.3535262213116654 2 4.1379213436113735 9.4366694027182891 2 7.158862836179348 10.62602761148519 2 16.660139691232985 5.095824371397744 2 26.412292705265006 9.649092774221927 2 1.5999999999999999 2.4379804257192288 2 13.510679617090046 4.2696547552248258 2 22.401541146766384 10.022230971393206 2 28.386365294609657 6.5056737750297593 2 5.7810959538083795 17.078095919692281 2 7.2270740079197076 17.325463065076747 2 16.795633157549261 15.268314800806927 2 20.383758019441629 7.1305836605075914 2 2.1516236742962578 18.249218806253833 2 12.662353451942309 11.84366517849492 2 17.24010679207376 21.753770377374344 2 27.990527524946607 2.6657097349668279 2 6.1052269154103005 7.8044499496817386 2 10.127164884354633 1.5999999999999999 2 13.188493935531815 5.4371451511492443 2 27.834381580970017 19.324142395638692 2 </DataArray>