<?xml version="1.0" ?>
<VTKFile byte_order="LittleEndian" type="UnstructuredGrid" version="0.1">
<UnstructuredGrid>
<Piece NumberOfCells="0" NumberOfPoints="384">
<Points>
<DataArray NumberOfComponents="3" format="ascii" type="Float32">37.072392432911478 10.003146277624278 2 51.752426115976156 15.706416451809009 2 67.590212299812592 13.364013476912522 2 75.424481161877338 15.666036509780163 2 91.390737207316903 8.1451905888567762 2 93.076090831405253 1.2 2 43.251015434793018 8.6543942897491739 2 55.445685543282003 3.2937056293776825 2 74.0194800095408 10.647901135902993 2 80.405636680390387 2.7951835000196894 2 86.197569242355954 1.2 2 98.8 7.9624213678465319 2 40.687695932721461 7.7601004383838061 2 53.262013628126368 8.0467927838581446 2 67.703307290294134 3.7642082579154854 2 82.952354231208261 11.346317928168046 2 87.256805189786135 1.2 2 92.652886084263002 11.86829873539592 2 41.199831844011214 2.4769879753509429 2 59.410459700458524 7.3348198771149367 2 71.057684246924339 10.323247907637894 2 75.317379546826473 1.2 2 88.017594262786631 18.083166248440737 2 97.181690105372127 3.4962757733510132 2 35.999722706085834 3.5044020844511161 2 52.219088947945103 17.928110503509451 2 66.315044726334406 18.848150404320311 2 77.238879992431805 11.984218886225438 2 87.929986577507321 12.504179792233549 2 94.562152891121741 8.1402858700666059 2 42.079880367655321 15.451637029570847 2 54.675986126419829 7.4885313221873169 2 71.437957345296482 3.6812988013831069 2 77.354343931944101 7.0598705701256597 2 79.968118958940266 1.2 2 98.8 17.664189837111891 2 38.877731400885352 11.200679444824306 2 54.706429437848158 4.73859438886248 2 67.050320043133254 5.2136951324459959 2 82.331386286305587 9.7986616695456537 2 87.272728068533752 7.8214864286284467 2 93.433133569012696 15.537952263513189 2 39.815149521832616 4.6009106741607795 2 57.456451006401309 1.2 2 72.199577296847778 18.891302922173857 2 76.485193951467352 1.2 2 84.472228890583764 8.0233492030956199 2 94.908164458566759 2.3258573496459958 2 35.637636666254579 5.2337902431662862 2 50.102917026423924 10.232475480741723 2 66.994524055664769 15.254895816797417 2 77.071268458786776 10.214973723875268 2 89.50976448182702 10.052350489787758 2 91.835368690901745 1.2 2 44.477744843130289 13.628516658472735 2 53.940841040224313 1.2 2 72.871000952005062 5.1888956452354185 2 80.300802539826279 5.1699757678679923 2 85.96188726633234 3.1074856993620328 2 96.80638055696231 9.5371463114798569 2 38.912337494539102 9.7469827604703525 2 50.657849143234529 6.2380793407674426 2 71.634259969920294 4.9648614580539565 2 81.78576826502902 17.124897121574222 2 90.072200717111201 4.0371653949936848 2 89.877904976749434 15.258872697877216 2 43.13334124179346 4.9631875741067573 2 56.715076519932374 7.7651019166900053 2 69.324202070727551 13.200380575587635 2 74.860432616658699 5.3381273012013875 2 84.674618736007034 12.784958686118337 2 98.8 3.2090072705338191 2 36.790069704104425 5.3869343259892384 2 56.31818885546889 20.765647359066602 2 64.609402779402089 12.722369488439913 2 79.980650040877336 18.344240288242318 2 89.96375378275782 17.201817140115693 2 93.473289965737109 5.5386488986684244 2 41.252662251650747 11.821613991876029 2 54.054393178090578 10.968133474149173 2 71.332183034216854 1.2 2 78.492469806711554 10.567232073606545 2 83.854950068534663 3.4182910335814984 2 98.8 13.695622522709762 2 40.066487661427317 18.916250921806903 2 51.619606345714409 1.2 2 70.60529646064812 7.2907695804812462 2 79.165680040847818 14.584102750614125 2 89.157018178028309 8.6591214325172441 2 97.269246843973804 11.018255683237586 2 39.506208620148627 2.4223285082335853 2 59.113692607920342 4.1370452743123174 2 72.760429294520421 13.399490569534263 2 78.113756528050402 5.9031285308420252 2 83.959896857998871 4.9965061696213775 2 95.202508703888398 4.7851173914660814 2 35.698324531393396 9.5202528491356517 2 52.612478480793627 13.860187580653896 2 66.028368309435962 9.8802937413154712 2 75.2599562867522 17.93311654596581 2 92.495787827212098 7.0731021251215163 2 93.680396471682329 3.0867562276772049 2 42.322106922068656 10.741288051087407 2 56.482403135993877 6.0893927691760901 2 75.236233768965448 9.2842263918443066 2 78.817052745350409 1.2 2 83.95748388541584 1.2 2 96.735127084195668 6.100533893076066 2 39.663910927322583 6.8366401333502225 2 51.472349087539058 10.601727445162872 2 69.364134194706253 2.2872580146212207 2 83.971911813372685 9.374464289452435 2 89.573493981622704 1.2 2 91.260292995196934 12.717270690903232 2 40.300001663300513 3.4509313456515764 2 59.671163679291581 10.65953024351014 2 72.06994194686429 8.7000714996828279 2 75.812584156010104 2.7118044168631164 2 83.786505245705243 16.458236294212487 2 98.8 6.3343718512505047 2 36.924849240780091 1.2 2 53.887826233054149 19.988069829356732 2 65.696752093457903 14.113544326997971 2 77.512236202890392 14.646875064167208 2 87.95111253949905 16.048288979480631 2 92.050026540071897 10.164885277683469 2 43.794873452696613 19.107026196682568 2 54.91531816380953 9.7494365858118321 2 72.820271878109011 1.2 2 75.949681850446567 6.2974356244937537 2 83.069010705076252 1.9035391174111607 2 96.906194580516228 14.675074349822363 2 37.791167035821879 13.232559346161278 2 53.778494669825385 3.573337052699133 2 69.256166655172947 8.0435027908992556 2 79.540307556671394 11.465220870801236 2 85.831804337521106 9.5043685300075218 2 95.297242392305407 18.152395782210963 2 40.139078386076726 5.7213521495677169 2 56.245409899601782 2.5390991682487716 2 70.296942164707332 15.073977592856247 2 78.174474236317195 4.3421297150167719 2 83.203355080574397 7.6393708937440747 2 97.233098590737413 1.2 2 34.898298593929461 2.4857807876160112 2 52.869351912491659 12.016050364443634 2 68.235504915401037 19.141738617788512 2 75.513860224829173 12.220574626800774 2 90.835600757773037 10.999525706468971 2 91.931110204256214 3.7595690038138225 2 43.159356138052466 13.998015231308674 2 56.274724699416502 1.2 2 73.942163759276241 7.4225167269615593 2 82.230814474788119 2.9461376604974707 2 87.019874687663631 6.2397288548621299 2 95.717634113573851 11.046026991996415 2 38.025751936752663 6.8123498924211443 2 53.108856213350784 4.7566208383756496 2 68.305408114587763 5.2028938063538748 2 84.287891141631746 14.599686016272216 2 87.059057027918954 2.9600676547835105 2 89.620025901995305 12.074821062015159 2 42.294996540669928 2.874819301698718 2 58.220069062718935 9.0918681368992349 2 71.05414289899511 13.292062757658632 2 74.606586755515622 2.6083901687525395 2 86.044453931060886 14.537806386688137 2 98.8 1.2 2 35.628200193693154 7.2305918752814842 2 56.527802809573778 15.408692644731 2 62.854925129961437 12.370880988664316 2 77.527051896571678 18.42882501224522 2 92.210573943814879 17.873571020970683 2 90.830747430881985 5.0779384158764822 2 41.203828287501764 9.6777655143224344 2 55.351698879628948 11.866834848812928 2 69.238755704322756 4.2583344897875772 2 80.493350078513728 7.2846896110906867 2 84.586374681559448 6.2925821592705962 2 98.8 10.521342214028271 2 40.96332928124162 14.621966447488957 2 51.905041079034 3.9972638246012275 2 69.440795852425197 10.254531482340591 2 81.573680581691264 13.293231931449501 2 89.630511423434086 5.9294863331991436 2 95.076383111081697 14.169729886324797 2 37.657497946761673 2.4307457442551677 2 57.753017017336539 6.1701782573078416 2 72.117618255125024 15.07608948582889 2 76.978031805690946 5.1015948044604542 2 81.602291065902889 6.6358176560749529 2 95.305700569430257 6.1953394398387935 2 37.686051592438545 8.7345633979611126 2 51.127141979869748 13.860472482938118 2 66.282931919714684 12.456969696419577 2 74.485960256886145 13.785736750610571 2 90.356203227953714 7.1290143876381142 2 92.612295356715336 2.513763973389719 2 42.461534970102683 7.1227565668728205 2 54.35859361864928 2.5400789263083712 2 72.636966330532204 10.038284624278086 2 79.144849514233329 2.7650392498768288 2 85.116108620399288 1.2 2 97.008947623874093 8.401551151443627 2 41.911328708356208 8.5222630252083569 2 53.656959005843298 9.1840243908293449 2 68.014382619445371 2.7977598400316066 2 81.361296033235064 11.515101753237696 2 88.405039515302704 1.2 2 94.020151469751866 11.275939092805583 2 40.835810836529916 1.2 2 58.104446533374755 7.5275372383206838 2 72.077117403070318 11.693148511792002 2 74.084971617779743 1.2 2 85.902624710774845 18.458690123993239 2 96.867475377288073 2.3724175863957155 2 34.890829290151466 4.1261576331301955 2 54.055748369608089 17.894739107796646 2 65.996104407204641 16.799095105895198 2 78.306855019327827 12.831496262726541 2 86.415849739798603 12.815325686131121 2 93.922236955526898 6.7202693025826266 2 42.912080469729432 17.323947356060412 2 55.43672240220026 6.4255392557532938 2 71.391730578025758 2.5201020387372446 2 77.48711271862949 8.7150413690792377 2 81.076750717421106 1.2 2 97.023621822987465 16.769696264872632 2 39.185990707906811 12.453389452532653 2 54.148027472327115 5.9006237206411942 2 66.642168799586059 6.4309816736245988 2 80.60893471856437 8.6622164944600097 2 87.577021983169658 9.2495401019977734 2 91.711718452710798 14.218319706139331 2 38.423405667961937 5.6423666320995585 2 58.15163049492795 2.4085343033362241 2 70.065573684298954 18.330074849011424 2 77.61361670719009 1.2 2 85.871624388558743 8.0811831806630892 2 94.343373770588059 1.2 2 34.760892356171738 6.1050361714586003 2 48.764202187079448 11.203151729161586 2 68.731924679007975 14.984859637670231 2 76.186590168840382 8.3811016462534287 2 88.39041948693604 10.829420343472355 2 90.71839230074697 1.2 2 44.888746997560631 12.068079879591311 2 52.854579868834705 1.2 2 73.664300295984845 6.0613999792815507 2 81.118260651819426 3.6083770080751596 2 86.510835596359499 4.8583491324043724 2 97.632314192501283 7.1054895890919401 2 39.876794176916341 8.9635659909265417 2 49.807777470985386 4.5735491312002168 2 70.313918396961682 5.0294466170319421 2 82.435517346583666 14.92735504482223 2 88.288453262834253 2.707105850300247 2 91.684670478840644 16.05025657641519 2 41.426467294445743 6.3888502247802075 2 55.510146684607669 8.4498361653714653 2 68.370814063738933 11.700413691162519 2 73.326542902792312 3.5430041035733342 2 85.51818094097068 11.324357619904148 2 98.28743798472955 5.2424180570285897 2 37.11794137199611 4.0522027592003376 2 58.051973761151586 19.385769886280688 2 64.759527844498081 11.19342183111238 2 78.913246381460198 16.55093446394508 2 90.064505829434111 19.316540173545913 2 92.517000674061634 4.7731705103330828 2 40.324972722462917 13.222184344563988 2 52.591757484134213 10.149889108973678 2 70.072610838988979 1.2 2 79.075800934294961 9.1514644159100378 2 85.342796648319037 4.5987596442083793 2 98.8 12.101156738264686 2 40.968068293203729 17.062718310801724 2 51.36449305393208 2.1654897864963418 2 70.604888860192844 8.8452854383353099 2 80.696415155077915 15.360300025460489 2 88.81058577163806 7.4881196201360396 2 96.935350427007094 12.831193770758915 2 39.538659203799426 1.2 2 57.197507108074063 4.4236383360035108 2 73.789340823159634 12.010886885967778 2 79.449695149220545 6.2584703146133833 2 82.752116060989536 4.3194481637904936 2 95.60606918396573 3.3304493899583569 2 34.563379890113616 10.710217438644174 2 53.986465836469513 14.668061779749344 2 64.596494683237623 9.6732232593973144 2 73.296651580824687 17.113041609576012 2 92.982165645334547 8.5045205516518028 2 94.091459918537907 4.2482996132520334 2 43.301175054909606 11.995783303307713 2 55.961427724507637 4.6268878746966609 2 73.908858741731677 8.919546465913248 2 77.902624510361136 2.7406740575215731 2 84.772845067977428 2.8051500304355899 2 96.697481143444023 4.7030924017740476 2 38.731878399824531 7.9134264602130795 2 51.821821696962125 8.6700285208128314 2 68.624121208423631 1.2 2 84.29620077033583 10.698300946286373 2 89.586578005375628 2.7928975409757126 2 93.359031122955031 13.428416217587282 2 38.543813347885944 3.2152752149936741 2 59.700751035205847 8.8852551449261519 2 71.768945601573378 6.496959373340828 2 76.845005047741139 3.2145507461949379 2 83.657375512570241 18.525616279126009 2 98.8 4.3436704180198236 2 38.245564805684332 1.2 2 55.83483517184056 18.656488323813104 2 64.672895061674694 15.256456301265546 2 76.26950384989604 13.750657165538971 2 87.831723913723735 14.323146535551905 2 93.534067298250562 9.8405725627915892 2 41.866689532453307 19.365403719304748 2 56.244583908710617 10.567765707023987 2 72.829217557403126 2.5170624829132522 2 75.283850479615609 7.3603395116733816 2 82.159027245656119 1.2 2 98.8 15.509408126305612 2 38.816323682592397 14.306573359652388 2 52.727248424263919 2.809120029739907 2 68.613588267704998 6.5473439893394794 2 80.605004225563789 10.114017736944671 2 86.897653937175775 10.803117756090005 2 95.180213349757423 16.081269547929217 2 41.860094233636708 5.2109378564670656 2 57.45831689410474 3.2627141843531664 2 71.163886744854778 16.781279633317858 2 79.37399892718831 4.3450150172072206 2 82.150959261985818 8.3977520230283762 2 95.828328994285954 1.2 2 33.715441178130249 2.612744920884627 2 51.414404430625098 12.170889018701525 2 68.358479949876454 16.916189312118984 2 75.695607173968298 10.686460772960352 2 90.760541623337673 9.1180473974704537 2 91.035741764761937 2.823682513668047 2 42.111422608969278 13.079345803676041 2 55.111719702255449 1.2 2 72.4921918474287 7.5101406154817525 2 81.620409862568792 5.1675551964230326 2 88.29124305761178 6.0699713094091416 2 95.116072144551225 9.5157004424028901 2 36.453864855002188 8.2783030494379641 2 53.010814955730588 6.862830832048421 2 69.918553926855182 6.1959743314322742 2 83.138699613273957 12.90751570341221 2 87.751427791835326 4.3127931050391997 2 89.564268086881128 13.710829597726683 2 41.406642318486455 4.1741795506556727 2 56.872509505122181 9.3311259573151926 2 70.227382591147645 11.712875953064772 2 74.330330842598812 4.1501882878799039 2 85.847081075727758 16.367947617143724 2 98.8 2.1070641676268669 2 36.807821829975524 6.7858027040717452 2 57.059898667011154 17.241073994281717 2 63.40876100837545 13.905255985351173 2 76.951392214880414 16.428980410515699 2 93.567934169867229 19.501035686645846 2 91.638559895894346 6.0942719003206154 2 40.324580784877547 10.879552632565803 2 54.183528006059888 12.849862718401909 2 70.053051185301285 3.2247494059265809 2 78.827440242885089 7.6849457991900154 2 85.725216553672894 6.4653923785433483 2 98.8 9.2400390998370376 2 39.739445687832493 15.568968176339339 2 51.100022963946998 5.0996544476474819 2 68.464630099817313 8.8906198437176585 2 80.09728549058886 13.134099419549548 2 88.813250614493157 4.5309255497731531 2 95.120007566180675 12.55173798057076 2 38.366897049310303 4.4722701864624819 2 58.454299358410978 5.1870579643601635 2 73.745617408469272 15.363117007344119 2 75.937912728871794 4.3737180308017596 2 82.992080098205619 6.2457794713511579 2 95.819113475711163 7.6165300733313979 2 </DataArray>
</Points>
<Cells>
<DataArray Name="connectivity" format="ascii" type="Int32">0</DataArray>
<DataArray Name="offsets" format="ascii" type="Int32">0</DataArray>
<DataArray Name="types" format="ascii" type="UInt8">1</DataArray>
</Cells>
<PointData>
<DataArray Name="Points" NumberOfComponents="3" format="ascii" type="Float32">37.072392432911478 10.003146277624278 2 51.752426115976156 15.706416451809009 2 67.590212299812592 13.364013476912522 2 75.424481161877338 15.666036509780163 2 91.390737207316903 8.1451905888567762 2 93.076090831405253 1.2 2 43.251015434793018 8.6543942897491739 2 55.445685543282003 3.2937056293776825 2 74.0194800095408 10.647901135902993 2 80.405636680390387 2.7951835000196894 2 86.197569242355954 1.2 2 98.8 7.9624213678465319 2 40.687695932721461 7.7601004383838061 2 53.262013628126368 8.0467927838581446 2 67.703307290294134 3.7642082579154854 2 82.952354231208261 11.346317928168046 2 87.256805189786135 1.2 2 92.652886084263002 11.86829873539592 2 41.199831844011214 2.4769879753509429 2 59.410459700458524 7.3348198771149367 2 71.057684246924339 10.323247907637894 2 75.317379546826473 1.2 2 88.017594262786631 18.083166248440737 2 97.181690105372127 3.4962757733510132 2 35.999722706085834 3.5044020844511161 2 52.219088947945103 17.928110503509451 2 66.315044726334406 18.848150404320311 2 77.238879992431805 11.984218886225438 2 87.929986577507321 12.504179792233549 2 94.562152891121741 8.1402858700666059 2 42.079880367655321 15.451637029570847 2 54.675986126419829 7.4885313221873169 2 71.437957345296482 3.6812988013831069 2 77.354343931944101 7.0598705701256597 2 79.968118958940266 1.2 2 98.8 17.664189837111891 2 38.877731400885352 11.200679444824306 2 54.706429437848158 4.73859438886248 2 67.050320043133254 5.2136951324459959 2 82.331386286305587 9.7986616695456537 2 87.272728068533752 7.8214864286284467 2 93.433133569012696 15.537952263513189 2 39.815149521832616 4.6009106741607795 2 57.456451006401309 1.2 2 72.199577296847778 18.891302922173857 2 76.485193951467352 1.2 2 84.472228890583764 8.0233492030956199 2 94.908164458566759 2.3258573496459958 2 35.637636666254579 5.2337902431662862 2 50.102917026423924 10.232475480741723 2 66.994524055664769 15.254895816797417 2 77.071268458786776 10.214973723875268 2 89.50976448182702 10.052350489787758 2 91.835368690901745 1.2 2 44.477744843130289 13.628516658472735 2 53.940841040224313 1.2 2 72.871000952005062 5.1888956452354185 2 80.300802539826279 5.1699757678679923 2 85.96188726633234 3.1074856993620328 2 96.80638055696231 9.5371463114798569 2 38.912337494539102 9.7469827604703525 2 50.657849143234529 6.2380793407674426 2 71.634259969920294 4.9648614580539565 2 81.78576826502902 17.124897121574222 2 90.072200717111201 4.0371653949936848 2 89.877904976749434 15.258872697877216 2 43.13334124179346 4.9631875741067573 2 56.715076519932374 7.7651019166900053 2 69.324202070727551 13.200380575587635 2 74.860432616658699 5.3381273012013875 2 84.674618736007034 12.784958686118337 2 98.8 3.2090072705338191 2 36.790069704104425 5.3869343259892384 2 56.31818885546889 20.765647359066602 2 64.609402779402089 12.722369488439913 2 79.980650040877336 18.344240288242318 2 89.96375378275782 17.201817140115693 2 93.473289965737109 5.5386488986684244 2 41.252662251650747 11.821613991876029 2 54.054393178090578 10.968133474149173 2 71.332183034216854 1.2 2 78.492469806711554 10.567232073606545 2 83.854950068534663 3.4182910335814984 2 98.8 13.695622522709762 2 40.066487661427317 18.916250921806903 2 51.619606345714409 1.2 2 70.60529646064812 7.2907695804812462 2 79.165680040847818 14.584102750614125 2 89.157018178028309 8.6591214325172441 2 97.269246843973804 11.018255683237586 2 39.506208620148627 2.4223285082335853 2 59.113692607920342 4.1370452743123174 2 72.760429294520421 13.399490569534263 2 78.113756528050402 5.9031285308420252 2 83.959896857998871 4.9965061696213775 2 95.202508703888398 4.7851173914660814 2 35.698324531393396 9.5202528491356517 2 52.612478480793627 13.860187580653896 2 66.028368309435962 9.8802937413154712 2 75.2599562867522 17.93311654596581 2 92.495787827212098 7.0731021251215163 2 93.680396471682329 3.0867562276772049 2 42.322106922068656 10.741288051087407 2 56.482403135993877 6.0893927691760901 2 75.236233768965448 9.2842263918443066 2 78.817052745350409 1.2 2 83.95748388541584 1.2 2 96.735127084195668 6.100533893076066 2 39.663910927322583 6.8366401333502225 2 51.472349087539058 10.601727445162872 2 69.364134194706253 2.2872580146212207 2 83.971911813372685 9.374464289452435 2 89.573493981622704 1.2 2 91.260292995196934 12.717270690903232 2 40.300001663300513 3.4509313456515764 2 59.671163679291581 10.65953024351014 2 72.06994194686429 8.7000714996828279 2 75.812584156010104 2.7118044168631164 2 83.786505245705243 16.458236294212487 2 98.8 6.3343718512505047 2 36.924849240780091 1.2 2 53.887826233054149 19.988069829356732 2 65.696752093457903 14.113544326997971 2 77.512236202890392 14.646875064167208 2 87.95111253949905 16.048288979480631 2 92.050026540071897 10.164885277683469 2 43.794873452696613 19.107026196682568 2 54.91531816380953 9.7494365858118321 2 72.820271878109011 1.2 2 75.949681850446567 6.2974356244937537 2 83.069010705076252 1.9035391174111607 2 96.906194580516228 14.675074349822363 2 37.791167035821879 13.232559346161278 2 53.778494669825385 3.573337052699133 2 69.256166655172947 8.0435027908992556 2 79.540307556671394 11.465220870801236 2 85.831804337521106 9.5043685300075218 2 95.297242392305407 18.152395782210963 2 40.139078386076726 5.7213521495677169 2 56.245409899601782 2.5390991682487716 2 70.296942164707332 15.073977592856247 2 78.174474236317195 4.3421297150167719 2 83.203355080574397 7.6393708937440747 2 97.233098590737413 1.2 2 34.898298593929461 2.4857807876160112 2 52.869351912491659 12.016050364443634 2 68.235504915401037 19.141738617788512 2 75.513860224829173 12.220574626800774 2 90.835600757773037 10.999525706468971 2 91.931110204256214 3.7595690038138225 2 43.159356138052466 13.998015231308674 2 56.274724699416502 1.2 2 73.942163759276241 7.4225167269615593 2 82.230814474788119 2.9461376604974707 2 87.019874687663631 6.2397288548621299 2 95.717634113573851 11.046026991996415 2 38.025751936752663 6.8123498924211443 2 53.108856213350784 4.7566208383756496 2 68.305408114587763 5.2028938063538748 2 84.287891141631746 14.599686016272216 2 87.059057027918954 2.9600676547835105 2 89.620025901995305 12.074821062015159 2 42.294996540669928 2.874819301698718 2 58.220069062718935 9.0918681368992349 2 71.05414289899511 13.292062757658632 2 74.606586755515622 2.6083901687525395 2 86.044453931060886 14.537806386688137 2 98.8 1.2 2 35.628200193693154 7.2305918752814842 2 56.527802809573778 15.408692644731 2 62.854925129961437 12.370880988664316 2 77.527051896571678 18.42882501224522 2 92.210573943814879 17.873571020970683 2 90.830747430881985 5.0779384158764822 2 41.203828287501764 9.6777655143224344 2 55.351698879628948 11.866834848812928 2 69.238755704322756 4.2583344897875772 2 80.493350078513728 7.2846896110906867 2 84.586374681559448 6.2925821592705962 2 98.8 10.521342214028271 2 40.96332928124162 14.621966447488957 2 51.905041079034 3.9972638246012275 2 69.440795852425197 10.254531482340591 2 81.573680581691264 13.293231931449501 2 89.630511423434086 5.9294863331991436 2 95.076383111081697 14.169729886324797 2 37.657497946761673 2.4307457442551677 2 57.753017017336539 6.1701782573078416 2 72.117618255125024 15.07608948582889 2 76.978031805690946 5.1015948044604542 2 81.602291065902889 6.6358176560749529 2 95.305700569430257 6.1953394398387935 2 37.686051592438545 8.7345633979611126 2 51.127141979869748 13.860472482938118 2 66.282931919714684 12.456969696419577 2 74.485960256886145 13.785736750610571 2 90.356203227953714 7.1290143876381142 2 92.612295356715336 2.513763973389719 2 42.461534970102683 7.1227565668728205 2 54.35859361864928 2.5400789263083712 2 72.636966330532204 10.038284624278086 2 79.144849514233329 2.7650392498768288 2 85.116108620399288 1.2 2 97.008947623874093 8.401551151443627 2 41.911328708356208 8.5222630252083569 2 53.656959005843298 9.1840243908293449 2 68.014382619445371 2.7977598400316066 2 81.361296033235064 11.515101753237696 2 88.405039515302704 1.2 2 94.020151469751866 11.275939092805583 2 40.835810836529916 1.2 2 58.104446533374755 7.5275372383206838 2 72.077117403070318 11.693148511792002 2 74.084971617779743 1.2 2 85.902624710774845 18.458690123993239 2 96.867475377288073 2.3724175863957155 2 34.890829290151466 4.1261576331301955 2 54.055748369608089 17.894739107796646 2 65.996104407204641 16.799095105895198 2 78.306855019327827 12.831496262726541 2 86.415849739798603 12.815325686131121 2 93.922236955526898 6.7202693025826266 2 42.912080469729432 17.323947356060412 2 55.43672240220026 6.4255392557532938 2 71.391730578025758 2.5201020387372446 2 77.48711271862949 8.7150413690792377 2 81.076750717421106 1.2 2 97.023621822987465 16.769696264872632 2 39.185990707906811 12.453389452532653 2 54.148027472327115 5.9006237206411942 2 66.642168799586059 6.4309816736245988 2 80.60893471856437 8.6622164944600097 2 87.577021983169658 9.2495401019977734 2 91.711718452710798 14.218319706139331 2 38.423405667961937 5.6423666320995585 2 58.15163049492795 2.4085343033362241 2 70.065573684298954 18.330074849011424 2 77.61361670719009 1.2 2 85.871624388558743 8.0811831806630892 2 94.343373770588059 1.2 2 34.760892356171738 6.1050361714586003 2 48.764202187079448 11.203151729161586 2 68.731924679007975 14.984859637670231 2 76.186590168840382 8.3811016462534287 2 88.39041948693604 10.829420343472355 2 90.71839230074697 1.2 2 44.888746997560631 12.068079879591311 2 52.854579868834705 1.2 2 73.664300295984845 6.0613999792815507 2 81.118260651819426 3.6083770080751596 2 86.510835596359499 4.8583491324043724 2 97.632314192501283 7.1054895890919401 2 39.876794176916341 8.9635659909265417 2 49.807777470985386 4.5735491312002168 2 70.313918396961682 5.0294466170319421 2 82.435517346583666 14.92735504482223 2 88.288453262834253 2.707105850300247 2 91.684670478840644 16.05025657641519 2 41.426467294445743 6.3888502247802075 2 55.510146684607669 8.4498361653714653 2 68.370814063738933 11.700413691162519 2 73.326542902792312 3.5430041035733342 2 85.51818094097068 11.324357619904148 2 98.28743798472955 5.2424180570285897 2 37.11794137199611 4.0522027592003376 2 58.051973761151586 19.385769886280688 2 64.759527844498081 11.19342183111238 2 78.913246381460198 16.55093446394508 2 90.064505829434111 19.316540173545913 2 92.517000674061634 4.7731705103330828 2 40.324972722462917 13.222184344563988 2 52.591757484134213 10.149889108973678 2 70.072610838988979 1.2 2 79.075800934294961 9.1514644159100378 2 85.342796648319037 4.5987596442083793 2 98.8 12.101156738264686 2 40.968068293203729 17.062718310801724 2 51.36449305393208 2.1654897864963418 2 70.604888860192844 8.8452854383353099 2 80.696415155077915 15.360300025460489 2 88.81058577163806 7.4881196201360396 2 96.935350427007094 12.831193770758915 2 39.538659203799426 1.2 2 57.197507108074063 4.4236383360035108 2 73.789340823159634 12.010886885967778 2 79.449695149220545 6.2584703146133833 2 82.752116060989536 4.3194481637904936 2 95.60606918396573 3.3304493899583569 2 34.563379890113616 10.710217438644174 2 53.986465836469513 14.668061779749344 2 64.596494683237623 9.6732232593973144 2 73.296651580824687 17.113041609576012 2 92.982165645334547 8.5045205516518028 2 94.091459918537907 4.2482996132520334 2 43.301175054909606 11.995783303307713 2 55.961427724507637 4.6268878746966609 2 73.908858741731677 8.919546465913248 2 77.902624510361136 2.7406740575215731 2 84.772845067977428 2.8051500304355899 2 96.697481143444023 4.7030924017740476 2 38.731878399824531 7.9134264602130795 2 51.821821696962125 8.6700285208128314 2 68.624121208423631 1.2 2 84.29620077033583 10.698300946286373 2 89.586578005375628 2.7928975409757126 2 93.359031122955031 13.428416217587282 2 38.543813347885944 3.2152752149936741 2 59.700751035205847 8.8852551449261519 2 71.768945601573378 6.496959373340828 2 76.845005047741139 3.2145507461949379 2 83.657375512570241 18.525616279126009 2 98.8 4.3436704180198236 2 38.245564805684332 1.2 2 55.83483517184056 18.656488323813104 2 64.672895061674694 15.256456301265546 2 76.26950384989604 13.750657165538971 2 87.831723913723735 14.323146535551905 2 93.534067298250562 9.8405725627915892 2 41.866689532453307 19.365403719304748 2 56.244583908710617 10.567765707023987 2 72.829217557403126 2.5170624829132522 2 75.283850479615609 7.3603395116733816 2 82.159027245656119 1.2 2 98.8 15.509408126305612 2 38.816323682592397 14.306573359652388 2 52.727248424263919 2.809120029739907 2 68.613588267704998 6.5473439893394794 2 80.605004225563789 10.114017736944671 2 86.897653937175775 10.803117756090005 2 95.180213349757423 16.081269547929217 2 41.860094233636708 5.2109378564670656 2 57.45831689410474 3.2627141843531664 2 71.163886744854778 16.781279633317858 2 79.37399892718831 4.3450150172072206 2 82.150959261985818 8.3977520230283762 2 95.828328994285954 1.2 2 33.715441178130249 2.612744920884627 2 51.414404430625098 12.170889018701525 2 68.358479949876454 16.916189312118984 2 75.695607173968298 10.686460772960352 2 90.760541623337673 9.1180473974704537 2 91.035741764761937 2.823682513668047 2 42.111422608969278 13.079345803676041 2 55.111719702255449 1.2 2 72.4921918474287 7.5101406154817525 2 81.620409862568792 5.1675551964230326 2 88.29124305761178 6.0699713094091416 2 95.116072144551225 9.5157004424028901 2 36.453864855002188 8.2783030494379641 2 53.010814955730588 6.862830832048421 2 69.918553926855182 6.1959743314322742 2 83.138699613273957 12.90751570341221 2 87.751427791835326 4.3127931050391997 2 89.564268086881128 13.710829597726683 2 41.406642318486455 4.1741795506556727 2 56.872509505122181 9.3311259573151926 2 70.227382591147645 11.712875953064772 2 74.330330842598812 4.1501882878799039 2 85.847081075727758 16.367947617143724 2 98.8 2.1070641676268669 2 36.807821829975524 6.7858027040717452 2 57.059898667011154 17.241073994281717 2 63.40876100837545 13.905255985351173 2 76.951392214880414 16.428980410515699 2 93.567934169867229 19.501035686645846 2 91.638559895894346 6.0942719003206154 2 40.324580784877547 10.879552632565803 2 54.183528006059888 12.849862718401909 2 70.053051185301285 3.2247494059265809 2 78.827440242885089 7.6849457991900154 2 85.725216553672894 6.4653923785433483 2 98.8 9.2400390998370376 2 39.739445687832493 15.568968176339339 2 51.100022963946998 5.0996544476474819 2 68.464630099817313 8.8906198437176585 2 80.09728549058886 13.134099419549548 2 88.813250614493157 4.5309255497731531 2 95.120007566180675 12.55173798057076 2 38.366897049310303 4.4722701864624819 2 58.454299358410978 5.1870579643601635 2 73.745617408469272 15.363117007344119 2 75.937912728871794 4.3737180308017596 2 82.992080098205619 6.2457794713511579 2 95.819113475711163 7.6165300733313979 2 </DataArray>