<?xml version="1.0" ?>
<VTKFile byte_order="LittleEndian" type="UnstructuredGrid" version="0.1">
<UnstructuredGrid>
<Piece NumberOfCells="0" NumberOfPoints="69">
<Points>
<DataArray NumberOfComponents="3" format="ascii" type="Float32">0 0 0 8.1002898119374791 1.518365918906393 2 15.980282288435724 1.518365918906393 2 26.04861883568115 4.5111697268039315 2 31.326289891978181 1.518365918906393 2 37.07109287492483 7.4309675166394351 2 43.016657706739913 1.518365918906393 2 44.43252298631085 7.3049271547694952 2 54.057068088434349 1.518365918906393 2 54.743263489985303 4.410129954139598 2 61.873703113205259 6.3145666043855337 2 71.129974379409802 1.518365918906393 2 73.846888145216127 6.8324589210927158 2 75.474266642287304 4.2800700127936695 2 79.845622154087209 7.0797718308797446 2 88.314999950192998 2.4286769147600049 2 92.796812816920763 6.8860048843067663 2 94.60626495944517 4.1769258227826729 2 3.8143143208895545 1.518365918906393 2 13.185920251075263 1.518365918906393 2 23.398718379044084 1.518365918906393 2 34.101241081207611 6.9207125486608136 2 36.669698735880232 1.518365918906393 2 42.712414651202209 4.9146941480822246 2 48.541451489210267 1.518365918906393 2 52.053906804223963 6.0312901101513203 2 57.595162969622969 7.0443791866301311 2 63.017314581846577 3.6668706061343936 2 70.832035601486353 6.942340987766447 2 72.57011981395857 4.1636863186052864 2 79.077613447050638 1.518365918906393 2 81.375363312897875 4.5123780166937086 2 83.827355692138923 6.2787382900757072 2 93.28286086087887 1.518365918906393 2 94.292614315438158 9.5205062902723387 2 8.567063790447305 4.9619102109429791 2 16.348427950180003 4.5143559894227963 2 26.035366139083109 1.518365918906393 2 32.703807417174922 4.2264393131131524 2 39.667431157842827 5.8778346054348818 2 40.661730498771163 3.0371389673458413 2 47.56824090603228 6.7837685898263951 2 51.292469653203312 1.518365918906393 2 56.921513803656936 1.518365918906393 2 64.868181985161982 6.0552760610785663 2 68.348936574391132 1.518365918906393 2 75.226135462012564 9.4971300785898816 2 76.846103786395787 6.9507709798860855 2 78.421612788341932 4.4005700570416746 2 85.957660959341126 1.518365918906393 2 90.027569074561427 7.9484131077608211 2 95.904025467148074 1.518365918906393 2 5.9359089346910086 3.5522441548949732 2 13.32868773137894 4.5451572862849767 2 20.743616714167938 1.6417494294699477 2 35.678497324309312 4.3723224386445452 2 33.997772306326944 1.518365918906393 2 45.794361593459087 1.518365918906393 2 45.587098658119992 4.4971290007149154 2 54.654649166319153 7.435900937431259 2 58.090876349139421 4.1439802335204181 2 60.913819049937025 1.518365918906393 2 69.711902631727881 4.1481586029831847 2 73.855921877976584 1.518365918906393 2 76.500587312866898 1.518365918906393 2 81.609682347908347 1.5289193710495752 2 86.222479367451385 4.514344380158116 2 91.759793295625201 4.1408652623529774 2 95.6891359527161 6.893464750680474 2 </DataArray>
</Points>
<Cells>
<DataArray Name="connectivity" format="ascii" type="Int32">0</DataArray>
<DataArray Name="offsets" format="ascii" type="Int32">0</DataArray>
<DataArray Name="types" format="ascii" type="UInt8">1</DataArray>
</Cells>
<PointData>
<DataArray Name="Points" NumberOfComponents="3" format="ascii" type="Float32">0 0 0 8.1002898119374791 1.518365918906393 2 15.980282288435724 1.518365918906393 2 26.04861883568115 4.5111697268039315 2 31.326289891978181 1.518365918906393 2 37.07109287492483 7.4309675166394351 2 43.016657706739913 1.518365918906393 2 44.43252298631085 7.3049271547694952 2 54.057068088434349 1.518365918906393 2 54.743263489985303 4.410129954139598 2 61.873703113205259 6.3145666043855337 2 71.129974379409802 1.518365918906393 2 73.846888145216127 6.8324589210927158 2 75.474266642287304 4.2800700127936695 2 79.845622154087209 7.0797718308797446 2 88.314999950192998 2.4286769147600049 2 92.796812816920763 6.8860048843067663 2 94.60626495944517 4.1769258227826729 2 3.8143143208895545 1.518365918906393 2 13.185920251075263 1.518365918906393 2 23.398718379044084 1.518365918906393 2 34.101241081207611 6.9207125486608136 2 36.669698735880232 1.518365918906393 2 42.712414651202209 4.9146941480822246 2 48.541451489210267 1.518365918906393 2 52.053906804223963 6.0312901101513203 2 57.595162969622969 7.0443791866301311 2 63.017314581846577 3.6668706061343936 2 70.832035601486353 6.942340987766447 2 72.57011981395857 4.1636863186052864 2 79.077613447050638 1.518365918906393 2 81.375363312897875 4.5123780166937086 2 83.827355692138923 6.2787382900757072 2 93.28286086087887 1.518365918906393 2 94.292614315438158 9.5205062902723387 2 8.567063790447305 4.9619102109429791 2 16.348427950180003 4.5143559894227963 2 26.035366139083109 1.518365918906393 2 32.703807417174922 4.2264393131131524 2 39.667431157842827 5.8778346054348818 2 40.661730498771163 3.0371389673458413 2 47.56824090603228 6.7837685898263951 2 51.292469653203312 1.518365918906393 2 56.921513803656936 1.518365918906393 2 64.868181985161982 6.0552760610785663 2 68.348936574391132 1.518365918906393 2 75.226135462012564 9.4971300785898816 2 76.846103786395787 6.9507709798860855 2 78.421612788341932 4.4005700570416746 2 85.957660959341126 1.518365918906393 2 90.027569074561427 7.9484131077608211 2 95.904025467148074 1.518365918906393 2 5.9359089346910086 3.5522441548949732 2 13.32868773137894 4.5451572862849767 2 20.743616714167938 1.6417494294699477 2 35.678497324309312 4.3723224386445452 2 33.997772306326944 1.518365918906393 2 45.794361593459087 1.518365918906393 2 45.587098658119992 4.4971290007149154 2 54.654649166319153 7.435900937431259 2 58.090876349139421 4.1439802335204181 2 60.913819049937025 1.518365918906393 2 69.711902631727881 4.1481586029831847 2 73.855921877976584 1.518365918906393 2 76.500587312866898 1.518365918906393 2 81.609682347908347 1.5289193710495752 2 86.222479367451385 4.514344380158116 2 91.759793295625201 4.1408652623529774 2 95.6891359527161 6.893464750680474 2 </DataArray>
<DataArray Name="forces" NumberOfComponents="3" format="ascii" type="Float32">0 0 0 -0.075797421404187187 -0.030853157056335775 0.0 -0.045032338592832073 0.019332604754679288 0.0 -0.012569198542151839 0.031307234190823402 0.0 0.0040025373673344689 0.0 0.0 0.01515114390972587 0.010342985389003412 0.0 -0.063333240259726975 -0.1281682172601176 0.0 0.051396056078303533 0.076840150993620904 0.0 0.086663686499048209 -0.065317075686750964 0.0 0.016125789117632457 0.054748980433960502 0.0 -0.035708657335206215 0.07076861256717791 0.0 -0.043573060674503672 -0.067952384122961368 0.0 -0.0034536764517012625 0.045684747309337567 0.0 0.0021334164102528447 0.049075029943814699 0.0 0.011796304076741954 0.046068794025489745 0.0 0.012003208873485993 0.14249314527685272 0.0 -0.046511333955417622 0.065287039655601814 0.0 -0.0025471087381500543 0.030146826477232935 0.0 0.015556574285235769 -0.058728859211979643 0.0 -0.055709467193227634 0.017372639830067826 0.0 -0.021824321899166499 -0.017079320112701558 0.0 -0.00050054208828794952 0.033538773934124709 0.0 0.038398850504647114 -0.064635391117994656 0.0 0.0051075148812093907 0.11834249894032525 0.0 0.01167878355713806 -0.053724753704162277 0.0 -0.0029994238344499546 0.048674331722348765 0.0 0.009265337625318025 0.056116154739211339 0.0 -0.02722679345292451 0.050214468045956362 0.0 -0.010718104987912121 0.026725439306385504 0.0 -0.014629727755213276 0.033184506052053538 0.0 -0.027440684218758449 -0.082610200936155787 0.0 0.0036225745183655483 0.037294456251610028 0.0 -0.043400149666240895 0.041761194524943951 0.0 -0.017206659213844972 -0.067585166120269241 0.0 -0.029797148472355563 0.062538693307778254 0.0 0.009967807656029358 0.048592567305143046 0.0 0.019574644828522739 0.018345935340566617 0.0 -0.012919993510490058 -0.04530011703944014 0.0 -0.015857420805691729 0.028828506463058991 0.0 0.032549747288359923 0.036022385860150802 0.0 -0.01941391669157963 0.14256258334288976 0.0 0.0011837254867661006 0.035834251627149954 0.0 0.050712887006069129 -0.10628594884758209 0.0 0.10835285691707627 -0.15163216407584229 0.0 -0.036747616233151217 0.052905941916043246 0.0 -0.06023961647849399 -0.038725747217862566 0.0 0.0073170994969974958 0.049334817009982532 0.0 0.0064317936933708554 0.049106065401998314 0.0 0.0095388284132326764 0.044777325010803427 0.0 0.032235922173685642 -0.14080017695232136 0.0 -0.028780338658166336 0.13609856764226688 0.0 -0.0091085346809139378 -0.070853666239706153 0.0 -0.023784693918219579 0.090423736772051969 0.0 0.016680538230051885 0.020307288030563322 0.0 -0.029075212398898646 0.045765748047102366 0.0 -0.028052559321689194 0.014992843486827508 0.0 0.01463090239696738 -0.034926286654043716 0.0 -0.027409789428763928 -0.053271259316279192 0.0 -0.003197193289721123 0.039726022521159435 0.0 0.0011170716837129446 0.059223548373103563 0.0 0.083770623250528309 0.056423372400536187 0.0 -0.023051640620788585 -0.023482499678170506 0.0 -0.031975565602147302 0.026313437760782155 0.0 -0.039405120711439756 -0.085403746122516805 0.0 -0.036258711808653976 -0.086520984006250051 0.0 -0.012440437528925177 0.036489938651925742 0.0 -0.025329772468058814 0.063110074263187196 0.0 -0.020292803218868505 0.036866028772298116 0.0 -0.029669075114303944 0.055365607692870647 0.0 </DataArray>
<DataArray Name="radii" format="ascii" type="Float32">0 1.518365918906393 1.518365918906393 1.518365918906393 1.518365918906393 1.518365918906393 1.518365918906393 1.518365918906393 1.518365918906393 1.518365918906393 1.518365918906393 1.518365918906393 1.518365918906393 1.518365918906393 1.518365918906393 1.518365918906393 1.518365918906393 1.518365918906393 1.518365918906393 1.518365918906393 1.518365918906393 1.518365918906393 1.518365918906393 1.518365918906393 1.518365918906393 1.518365918906393 1.518365918906393 1.518365918906393 1.518365918906393 1.518365918906393 1.518365918906393 1.518365918906393 1.518365918906393 1.518365918906393 1.518365918906393 1.518365918906393 1.518365918906393 1.518365918906393 1.518365918906393 1.518365918906393 1.518365918906393 1.518365918906393 1.518365918906393 1.518365918906393 1.518365918906393 1.518365918906393 1.518365918906393 1.518365918906393 1.518365918906393 1.518365918906393 1.518365918906393 1.518365918906393 1.518365918906393 1.518365918906393 1.518365918906393 1.518365918906393 1.518365918906393 1.518365918906393 1.518365918906393 1.518365918906393 1.518365918906393 1.518365918906393 1.518365918906393 1.518365918906393 1.518365918906393 1.518365918906393 1.518365918906393 1.518365918906393 1.518365918906393 </DataArray>
</PointData>
<CellData/>
</Piece>
</UnstructuredGrid>
</VTKFile>
