<?xml version="1.0" ?>
<VTKFile byte_order="LittleEndian" type="UnstructuredGrid" version="0.1">
<UnstructuredGrid>
<Piece NumberOfCells="0" NumberOfPoints="9">
<Points>
<DataArray NumberOfComponents="3" format="ascii" type="Float32">0 0 0 32.75424568691912 4.7493528724042413 2 43.148024265923034 3.8071591134556741 2 81.928060713675052 1 2 30.857079109900088 6.8222947684051203 2 81.409153147796815 5.9980804636762652 2 39.938040513219242 7.1279953734898021 2 31.30252572457627 1.2 2 81.556024594422269 3.5977649640372378 2 </DataArray>
</Points>
<Cells>
<DataArray Name="connectivity" format="ascii" type="Int32">0</DataArray>
<DataArray Name="offsets" format="ascii" type="Int32">0</DataArray>
<DataArray Name="types" format="ascii" type="UInt8">1</DataArray>
</Cells>
<PointData>
<DataArray Name="Points" NumberOfComponents="3" format="ascii" type="Float32">0 0 0 32.75424568691912 4.7493528724042413 2 43.148024265923034 3.8071591134556741 2 81.928060713675052 1 2 30.857079109900088 6.8222947684051203 2 81.409153147796815 5.9980804636762652 2 39.938040513219242 7.1279953734898021 2 31.30252572457627 1.2 2 81.556024594422269 3.5977649640372378 2 </DataArray>
<DataArray Name="forces" NumberOfComponents="3" format="ascii" type="Float32">0 0 0 0.12432980104575553 0.067254823051914742 0.0 0.029687532419050394 0.016971986439014097 0.0 -0.10081825260171114 -0.051412050090233009 0.0 0.001052007850728029 4.7003250369627737e-05 0.0 -0.0005137653303469216 0.0087525370274157098 0.0 -0.033717078584944743 0.007265740003101929 0.0 -0.14102071573444441 -0.077851264236702397 0.0 0.014159138006477109 -0.019925415217760353 0.0 </DataArray>
<DataArray Name="radii" format="ascii" type="Float32">0 1.2 1.4 1 1.2 1 1.4 1.2 1.4 </DataArray>
</PointData>
<CellData/>
</Piece>
</UnstructuredGrid>
</VTKFile>
