<?xml version="1.0" ?>
<VTKFile byte_order="LittleEndian" type="UnstructuredGrid" version="0.1">
<UnstructuredGrid>
<Piece NumberOfCells="0" NumberOfPoints="16">
<Points>
<DataArray NumberOfComponents="3" format="ascii" type="Float32">2.1288436779136388 3.2377074937851251 2 11.022824418636851 1.1508657626710002 2 18.611060807800218 1.1508657626710002 2 38.805731831352482 1.1508657626710002 2 50.461058956530465 3.8442688440658226 2 64.287828390904878 1.1508657626710002 2 67.607447689721539 4.3458704847158707 2 83.779204396857921 1.1508657626710002 2 1.1508657626710002 1.1508657626710002 2 10.813166787560954 3.4271622986248089 2 18.992682320346368 3.4205389187803887 2 38.108512003429354 3.3376200423365585 2 48.191779889037733 3.9215231903795367 2 66.489818056908874 1.1508657626710002 2 65.676017106298431 3.1999533089038921 2 83.51685498235868 3.4033992909532502 2 </DataArray>
</Points>
<Cells>
<DataArray Name="connectivity" format="ascii" type="Int32">0</DataArray>
<DataArray Name="offsets" format="ascii" type="Int32">0</DataArray>
<DataArray Name="types" format="ascii" type="UInt8">1</DataArray>
</Cells>
<PointData>
<DataArray Name="Points" NumberOfComponents="3" format="ascii" type="Float32">2.1288436779136388 3.2377074937851251 2 11.022824418636851 1.1508657626710002 2 18.611060807800218 1.1508657626710002 2 38.805731831352482 1.1508657626710002 2 50.461058956530465 3.8442688440658226 2 64.287828390904878 1.1508657626710002 2 67.607447689721539 4.3458704847158707 2 83.779204396857921 1.1508657626710002 2 1.1508657626710002 1.1508657626710002 2 10.813166787560954 3.4271622986248089 2 18.992682320346368 3.4205389187803887 2 38.108512003429354 3.3376200423365585 2 48.191779889037733 3.9215231903795367 2 66.489818056908874 1.1508657626710002 2 65.676017106298431 3.1999533089038921 2 83.51685498235868 3.4033992909532502 2 </DataArray>
<DataArray Name="forces" NumberOfComponents="3" format="ascii" type="Float32">-0.0061769406167419992 0.0065428519691226568 0.0 -0.021593893206633363 -0.026543188204078798 0.0 -0.026226502009663578 -0.02924135612235727 0.0 0.014279769788961017 -0.11394198586539514 0.0 -0.0051096174884763257 0.0081450015446965819 0.0 -0.056657815578843418 -0.094166687351849299 0.0 -0.01501455561047399 0.039928809395858848 0.0 0.0023383744930071636 -0.11582048518889532 0.0 0.0 0.0 0.0 -0.00082392573445673467 0.0087778797492192463 0.0 3.4249070627493366e-05 0.00020997238134973356 0.0 0.0032708469650790254 0.0073632664484345953 0.0 -0.011800222866489515 -0.0006442506748263444 0.0 -0.045199728905396606 -0.11273211289106846 0.0 -0.00780865887428564 0.029166285569163258 0.0 -0.0013441980219001228 0.015475448375240102 0.0 </DataArray>
<DataArray Name="radii" format="ascii" type="Float32">1.1508657626710002 1.1508657626710002 1.1508657626710002 1.1508657626710002 1.1508657626710002 1.1508657626710002 1.1508657626710002 1.1508657626710002 1.1508657626710002 1.1508657626710002 1.1508657626710002 1.1508657626710002 1.1508657626710002 1.1508657626710002 1.1508657626710002 1.1508657626710002 </DataArray>
</PointData>
<CellData/>
</Piece>
</UnstructuredGrid>
</VTKFile>
