<?xml version="1.0" ?>
<VTKFile byte_order="LittleEndian" type="UnstructuredGrid" version="0.1">
<UnstructuredGrid>
<Piece NumberOfCells="0" NumberOfPoints="545">
<Points>
<DataArray NumberOfComponents="3" format="ascii" type="Float32">0 0 0 6.6375158234043541 5.0107043202957184 2 15.263429437270165 1.3393107879191641 2 23.7746466021127 11.940944329599846 2 32.287960761185204 1.3393107879191641 2 35.830324160104958 17.06357722134803 2 44.901740145751567 3.7529980067049529 2 44.494119070213976 13.237534266837439 2 52.490095638875346 1.3393107879191641 2 54.254679440946745 6.7872947110509694 2 61.721912995573646 7.7240530752288432 2 71.759963053482835 1.3393107879191641 2 73.051681872704719 15.968839967830313 2 75.195880755185087 10.259959702052491 2 81.891005157348914 12.46073256005346 2 87.864310781128395 5.794424427386951 2 89.152856694989055 12.147524553303223 2 92.534393861640851 7.4146869410070089 2 4.0252100085439917 1.3393107879191641 2 14.095075462506797 2.351335469558427 2 22.726226531675788 4.2118610952411668 2 32.874895599015716 16.551477148705288 2 37.30112706950753 3.7196350477736799 2 41.269432656842611 12.418403657712478 2 49.226567360204193 1.3393107879191641 2 50.279139611775861 14.237331307400995 2 58.625759594919295 12.133623854612575 2 63.017708301583106 2.8440384705851027 2 68.279604338356762 14.268070024536151 2 71.51280068629633 8.8512115526536217 2 79.657646341186634 1.3393107879191641 2 83.425631082530344 3.5882048387431271 2 84.699623719871809 14.840710943577607 2 92.21949449451256 1.3393107879191641 2 91.729150511792369 16.759733463665079 2 6.6650750370051659 10.905321987744433 2 15.719715377709086 11.948462670729612 2 23.93349779669969 5.9981144929695995 2 31.395857498889658 9.5516464546101414 2 38.132635342929262 12.179068026013065 2 41.314927194521211 4.1292416598022674 2 48.972705854374055 9.9877073037043136 2 53.116846783420421 4.5046999791028588 2 55.914563094105397 1.3393107879191641 2 66.839103386957319 15.730078654689986 2 65.312744846098241 3.2753127401995235 2 76.806222644325516 15.084708898580317 2 78.279105210925138 16.37826545247794 2 79.300093769791857 7.0803627958600437 2 87.623225760795535 1.3393107879191641 2 85.446165635973827 11.177496887688832 2 93.330576935050047 1.3393107879191641 2 5.7761370335114526 6.6985933679715437 2 13.750894694128874 12.078467807198621 2 22.053463832831302 6.7708396708415712 2 34.914193788748669 7.1537292352822304 2 33.480636326794659 5.651360161397144 2 45.865901057042549 1.3393107879191641 2 45.600078166922849 6.0023531154407204 2 52.587248073189301 13.484817022579806 2 58.014877524362099 6.3279203852061814 2 60.980666576484857 2.9378743547183741 2 66.922744296574379 5.6271991162080086 2 72.566506747547677 3.4609440511375076 2 74.260227866602065 3.6193194126037596 2 81.204965082894546 2.9203041757694064 2 87.164845440487795 8.9801577116195688 2 88.188395313435677 8.2727137053336275 2 92.185772672845317 12.267161040945609 2 7.4712300009965897 7.7734289929969007 2 15.274525095264437 4.8636688213268373 2 21.130177859926832 9.7791211764441783 2 29.984419024189879 1.3393107879191641 2 36.048784800155694 10.258278453500566 2 42.418845099596027 1.3393107879191641 2 42.365289851362924 14.538210014208582 2 54.459916622852106 4.5071273975250454 2 56.951306235148017 8.6701565189626102 2 63.921232807226303 14.392687965403915 2 70.436140065289052 1.3393107879191641 2 73.856339327289916 9.3596294029203335 2 73.229649487753065 5.4570688740701732 2 84.208346182988805 16.639418168684447 2 88.942909836509642 5.0599145308660312 2 90.943364997876486 10.495392145461828 2 91.151018393064504 7.9752498128630798 2 1.3393107879191641 5.1391330052692688 2 11.794041648074929 1.3393107879191641 2 19.646948777468079 2.8957456910323303 2 33.030375391933283 10.746423902473383 2 36.3255460897796 4.4239048874649054 2 44.795880637781444 10.894732330321331 2 49.693647745412378 5.9875540973276662 2 50.485163324045516 10.438919610962504 2 55.756465497902795 16.187886680164439 2 64.197382741165953 6.8469843445791669 2 70.174140291254858 11.607754755742386 2 68.710015703565858 6.2724897071022268 2 78.067428415953344 3.9505506135701252 2 81.063871330312494 9.0494752873620623 2 83.302730169241357 13.892775931121559 2 93.329282152126268 6.527425000056831 2 92.478089513862585 18.480928131175261 2 9.9358754279520642 11.301190220804697 2 17.40544957537265 5.1794827546525006 2 24.925597009993833 1.3393107879191641 2 30.941174557907221 2.8847735700375257 2 40.96603825741515 10.284848081598932 2 43.324925839588538 8.7659918596201489 2 47.293292131264714 14.742494650707153 2 51.218945765630174 2.6819190759719831 2 58.997146406154513 1.3393107879191641 2 62.606342908250255 8.7968668298103765 2 68.185380277602661 1.3393107879191641 2 72.109355854402978 18.322503051258533 2 75.749703308290947 11.38046676088957 2 77.278906566532868 11.454143372324983 2 87.237272098682951 3.4379978805517921 2 87.36451552145067 18.495794102161724 2 96.533138011991426 1.3393107879191641 2 4.3605124398869632 10.606379578822635 2 10.667421263394782 9.322972677631908 2 20.070412043056002 6.2012022328894529 2 36.246134973469616 8.0033605453681158 2 35.709754504245346 1.3393107879191641 2 46.590610517681085 3.4597432956867591 2 47.6909453737197 10.246099350933601 2 55.318945103470128 12.391324554613792 2 58.656330368754148 8.751299600433887 2 60.83428050923721 5.6713955339876305 2 69.487977448535489 8.7784320713811663 2 72.879841460873763 1.3393107879191641 2 76.820397678892476 4.4905550157712808 2 79.993954209111294 3.9191712329708488 2 84.6616969148929 3.3130195929358943 2 92.088093436955816 5.6175592596810793 2 96.127302884111486 7.94770686097712 2 6.6505198070458142 1.3393107879191641 2 16.829904197420383 3.5152204281521082 2 22.97012975911921 9.8500136250503267 2 31.960415164939285 3.6481941408110199 2 37.048009208967102 13.412535597280499 2 43.409777527899202 4.4625039284407961 2 44.119314533795787 17.727226812196278 2 53.788986409779312 1.3393107879191641 2 52.983463034541117 10.074928649388266 2 62.694886179382941 10.922413165110433 2 71.358439971771787 3.6656564585565228 2 70.653273150843205 14.193913786836651 2 76.918655551311645 7.8689614538466772 2 80.087784336719935 13.980758271168577 2 85.770007799838652 5.6278508113425989 2 90.836270499035763 13.244974734471308 2 94.847702944708118 7.7149054383166966 2 1.3393107879191641 3.8961038489178517 2 12.159849042192279 3.850847413037767 2 23.60026380855113 1.3393107879191641 2 31.848912407838366 14.396937356042297 2 37.958101763265816 1.3393107879191641 2 43.395774374372152 11.280244894641363 2 47.878812282601309 2.5881679155019222 2 51.044909891016268 17.146698289103391 2 61.459812178657437 10.681826657381633 2 62.01529977539726 6.0881930666826101 2 67.423799617355627 17.910321002667079 2 72.836016556367468 8.6415102639599848 2 78.580144999386732 1.3393107879191641 2 82.467879429868404 6.031668071581727 2 84.206108558542454 12.428565950495239 2 89.918964858049563 1.3393107879191641 2 89.702987010620376 17.729328275397599 2 8.1580576503746656 12.767707235703242 2 18.078216163140535 9.3702684518848169 2 24.17169908070808 4.5980035151516647 2 33.12558371944337 6.9644677413716574 2 39.35056973531276 16.430804897800726 2 40.082066057952126 5.7797862185488063 2 47.434124275952584 12.100300089433583 2 52.18150172685808 6.4657373331869517 2 55.756113185664027 3.4551242903518466 2 65.900536160889345 11.727423771756827 2 66.013291814970827 6.4802151645178236 2 76.346943497295982 17.97361566295951 2 78.479393402161122 14.144668907710884 2 78.200881348730633 7.9529429068840134 2 85.458614583708155 2.5448513482334656 2 86.907465953917921 14.874126439621323 2 95.343690598991955 3.8417738543668793 2 3.6062307936228866 4.5030668970505205 2 11.52593877267218 12.728202354195851 2 20.458182994596477 4.9217334565422135 2 35.129301591198889 9.0598419124671903 2 35.03517968502419 3.6942170780065355 2 44.701151551113334 1.3393107879191641 2 45.448671507454428 8.3424661561380251 2 53.546773598924077 16.765412114064947 2 57.453370273702205 3.7857445522161308 2 61.052979084906198 1.3393107879191641 2 67.493213050709556 3.4875992640307127 2 71.32529536090577 5.7135817834750986 2 76.358097785631315 1.3393107879191641 2 81.88700851051982 1.3393107879191641 2 84.690370905954836 9.1310327237940037 2 87.504323131933901 10.352780445283427 2 94.19239984936651 10.982650081051027 2 8.5817410661229001 3.956782728579058 2 13.376532166159031 8.3593193721207477 2 20.045866256800839 13.616491461375599 2 29.858354842924125 3.5714535560606882 2 38.236409423988512 8.8698789610100199 2 43.557930257532568 1.3393107879191641 2 40.434493342592489 18.474498497784179 2 55.78255686397916 6.3306310395442766 2 55.066494374490631 8.3132044017792168 2 64.582795856711371 12.446445938818449 2 68.783764123715827 3.8930488301130692 2 73.659243092141864 12.038827912702612 2 74.74338818254661 7.3788460086427055 2 80.737683936994571 17.870765515028332 2 89.631535273405959 6.2746464408522638 2 92.780067945037899 11.031158467352569 2 89.649515374723947 8.5407587633444173 2 3.1640814146481908 6.4723004235599451 2 10.408273119367244 1.3393107879191641 2 22.314117342142257 1.3393107879191641 2 34.860563972427379 12.633307242971835 2 37.927659151642416 6.2388338126266927 2 44.723776859548039 7.061170723106807 2 48.063185186422686 3.8540107943514879 2 52.848896131443716 7.5852426401485333 2 55.936620785160443 14.026092929674935 2 64.195225818067158 3.141422719128538 2 71.880336042634212 10.850213439022921 2 69.785418641048523 7.5671028484352503 2 77.446761462988789 1.3393107879191641 2 82.81796690345891 7.2997785987190875 2 82.919481059981123 10.150299510741664 2 94.241291656048276 4.542520001063699 2 93.25747677536917 15.814262820684229 2 10.463281463252327 6.7615618248033797 2 15.836992638447335 8.4226477055446765 2 26.373300218337175 1.3393107879191641 2 31.680085198344401 6.7802175361323966 2 41.396182541743627 7.6703656207008679 2 42.023438048959974 5.2662044706287832 2 49.079093956356289 15.79166188705034 2 50.0982709
[...]
<PointData>
<DataArray Name="Points" NumberOfComponents="3" format="ascii" type="Float32">0 0 0 6.6375158234043541 5.0107043202957184 2 15.263429437270165 1.3393107879191641 2 23.7746466021127 11.940944329599846 2 32.287960761185204 1.3393107879191641 2 35.830324160104958 17.06357722134803 2 44.901740145751567 3.7529980067049529 2 44.494119070213976 13.237534266837439 2 52.490095638875346 1.3393107879191641 2 54.254679440946745 6.7872947110509694 2 61.721912995573646 7.7240530752288432 2 71.759963053482835 1.3393107879191641 2 73.051681872704719 15.968839967830313 2 75.195880755185087 10.259959702052491 2 81.891005157348914 12.46073256005346 2 87.864310781128395 5.794424427386951 2 89.152856694989055 12.147524553303223 2 92.534393861640851 7.4146869410070089 2 4.0252100085439917 1.3393107879191641 2 14.095075462506797 2.351335469558427 2 22.726226531675788 4.2118610952411668 2 32.874895599015716 16.551477148705288 2 37.30112706950753 3.7196350477736799 2 41.269432656842611 12.418403657712478 2 49.226567360204193 1.3393107879191641 2 50.279139611775861 14.237331307400995 2 58.625759594919295 12.133623854612575 2 63.017708301583106 2.8440384705851027 2 68.279604338356762 14.268070024536151 2 71.51280068629633 8.8512115526536217 2 79.657646341186634 1.3393107879191641 2 83.425631082530344 3.5882048387431271 2 84.699623719871809 14.840710943577607 2 92.21949449451256 1.3393107879191641 2 91.729150511792369 16.759733463665079 2 6.6650750370051659 10.905321987744433 2 15.719715377709086 11.948462670729612 2 23.93349779669969 5.9981144929695995 2 31.395857498889658 9.5516464546101414 2 38.132635342929262 12.179068026013065 2 41.314927194521211 4.1292416598022674 2 48.972705854374055 9.9877073037043136 2 53.116846783420421 4.5046999791028588 2 55.914563094105397 1.3393107879191641 2 66.839103386957319 15.730078654689986 2 65.312744846098241 3.2753127401995235 2 76.806222644325516 15.084708898580317 2 78.279105210925138 16.37826545247794 2 79.300093769791857 7.0803627958600437 2 87.623225760795535 1.3393107879191641 2 85.446165635973827 11.177496887688832 2 93.330576935050047 1.3393107879191641 2 5.7761370335114526 6.6985933679715437 2 13.750894694128874 12.078467807198621 2 22.053463832831302 6.7708396708415712 2 34.914193788748669 7.1537292352822304 2 33.480636326794659 5.651360161397144 2 45.865901057042549 1.3393107879191641 2 45.600078166922849 6.0023531154407204 2 52.587248073189301 13.484817022579806 2 58.014877524362099 6.3279203852061814 2 60.980666576484857 2.9378743547183741 2 66.922744296574379 5.6271991162080086 2 72.566506747547677 3.4609440511375076 2 74.260227866602065 3.6193194126037596 2 81.204965082894546 2.9203041757694064 2 87.164845440487795 8.9801577116195688 2 88.188395313435677 8.2727137053336275 2 92.185772672845317 12.267161040945609 2 7.4712300009965897 7.7734289929969007 2 15.274525095264437 4.8636688213268373 2 21.130177859926832 9.7791211764441783 2 29.984419024189879 1.3393107879191641 2 36.048784800155694 10.258278453500566 2 42.418845099596027 1.3393107879191641 2 42.365289851362924 14.538210014208582 2 54.459916622852106 4.5071273975250454 2 56.951306235148017 8.6701565189626102 2 63.921232807226303 14.392687965403915 2 70.436140065289052 1.3393107879191641 2 73.856339327289916 9.3596294029203335 2 73.229649487753065 5.4570688740701732 2 84.208346182988805 16.639418168684447 2 88.942909836509642 5.0599145308660312 2 90.943364997876486 10.495392145461828 2 91.151018393064504 7.9752498128630798 2 1.3393107879191641 5.1391330052692688 2 11.794041648074929 1.3393107879191641 2 19.646948777468079 2.8957456910323303 2 33.030375391933283 10.746423902473383 2 36.3255460897796 4.4239048874649054 2 44.795880637781444 10.894732330321331 2 49.693647745412378 5.9875540973276662 2 50.485163324045516 10.438919610962504 2 55.756465497902795 16.187886680164439 2 64.197382741165953 6.8469843445791669 2 70.174140291254858 11.607754755742386 2 68.710015703565858 6.2724897071022268 2 78.067428415953344 3.9505506135701252 2 81.063871330312494 9.0494752873620623 2 83.302730169241357 13.892775931121559 2 93.329282152126268 6.527425000056831 2 92.478089513862585 18.480928131175261 2 9.9358754279520642 11.301190220804697 2 17.40544957537265 5.1794827546525006 2 24.925597009993833 1.3393107879191641 2 30.941174557907221 2.8847735700375257 2 40.96603825741515 10.284848081598932 2 43.324925839588538 8.7659918596201489 2 47.293292131264714 14.742494650707153 2 51.218945765630174 2.6819190759719831 2 58.997146406154513 1.3393107879191641 2 62.606342908250255 8.7968668298103765 2 68.185380277602661 1.3393107879191641 2 72.109355854402978 18.322503051258533 2 75.749703308290947 11.38046676088957 2 77.278906566532868 11.454143372324983 2 87.237272098682951 3.4379978805517921 2 87.36451552145067 18.495794102161724 2 96.533138011991426 1.3393107879191641 2 4.3605124398869632 10.606379578822635 2 10.667421263394782 9.322972677631908 2 20.070412043056002 6.2012022328894529 2 36.246134973469616 8.0033605453681158 2 35.709754504245346 1.3393107879191641 2 46.590610517681085 3.4597432956867591 2 47.6909453737197 10.246099350933601 2 55.318945103470128 12.391324554613792 2 58.656330368754148 8.751299600433887 2 60.83428050923721 5.6713955339876305 2 69.487977448535489 8.7784320713811663 2 72.879841460873763 1.3393107879191641 2 76.820397678892476 4.4905550157712808 2 79.993954209111294 3.9191712329708488 2 84.6616969148929 3.3130195929358943 2 92.088093436955816 5.6175592596810793 2 96.127302884111486 7.94770686097712 2 6.6505198070458142 1.3393107879191641 2 16.829904197420383 3.5152204281521082 2 22.97012975911921 9.8500136250503267 2 31.960415164939285 3.6481941408110199 2 37.048009208967102 13.412535597280499 2 43.409777527899202 4.4625039284407961 2 44.119314533795787 17.727226812196278 2 53.788986409779312 1.3393107879191641 2 52.983463034541117 10.074928649388266 2 62.694886179382941 10.922413165110433 2 71.358439971771787 3.6656564585565228 2 70.653273150843205 14.193913786836651 2 76.918655551311645 7.8689614538466772 2 80.087784336719935 13.980758271168577 2 85.770007799838652 5.6278508113425989 2 90.836270499035763 13.244974734471308 2 94.847702944708118 7.7149054383166966 2 1.3393107879191641 3.8961038489178517 2 12.159849042192279 3.850847413037767 2 23.60026380855113 1.3393107879191641 2 31.848912407838366 14.396937356042297 2 37.958101763265816 1.3393107879191641 2 43.395774374372152 11.280244894641363 2 47.878812282601309 2.5881679155019222 2 51.044909891016268 17.146698289103391 2 61.459812178657437 10.681826657381633 2 62.01529977539726 6.0881930666826101 2 67.423799617355627 17.910321002667079 2 72.836016556367468 8.6415102639599848 2 78.580144999386732 1.3393107879191641 2 82.467879429868404 6.031668071581727 2 84.206108558542454 12.428565950495239 2 89.918964858049563 1.3393107879191641 2 89.702987010620376 17.729328275397599 2 8.1580576503746656 12.767707235703242 2 18.078216163140535 9.3702684518848169 2 24.17169908070808 4.5980035151516647 2 33.12558371944337 6.9644677413716574 2 39.35056973531276 16.430804897800726 2 40.082066057952126 5.7797862185488063 2 47.434124275952584 12.100300089433583 2 52.18150172685808 6.4657373331869517 2 55.756113185664027 3.4551242903518466 2 65.900536160889345 11.727423771756827 2 66.013291814970827 6.4802151645178236 2 76.346943497295982 17.97361566295951 2 78.479393402161122 14.144668907710884 2 78.200881348730633 7.9529429068840134 2 85.458614583708155 2.5448513482334656 2 86.907465953917921 14.874126439621323 2 95.343690598991955 3.8417738543668793 2 3.6062307936228866 4.5030668970505205 2 11.52593877267218 12.728202354195851 2 20.458182994596477 4.9217334565422135 2 35.129301591198889 9.0598419124671903 2 35.03517968502419 3.6942170780065355 2 44.701151551113334 1.3393107879191641 2 45.448671507454428 8.3424661561380251 2 53.546773598924077 16.765412114064947 2 57.453370273702205 3.7857445522161308 2 61.052979084906198 1.3393107879191641 2 67.493213050709556 3.4875992640307127 2 71.32529536090577 5.7135817834750986 2 76.358097785631315 1.3393107879191641 2 81.88700851051982 1.3393107879191641 2 84.690370905954836 9.1310327237940037 2 87.504323131933901 10.352780445283427 2 94.19239984936651 10.982650081051027 2 8.5817410661229001 3.956782728579058 2 13.376532166159031 8.3593193721207477 2 20.045866256800839 13.616491461375599 2 29.858354842924125 3.5714535560606882 2 38.236409423988512 8.8698789610100199 2 43.557930257532568 1.3393107879191641 2 40.434493342592489 18.474498497784179 2 55.78255686397916 6.3306310395442766 2 55.066494374490631 8.3132044017792168 2 64.582795856711371 12.446445938818449 2 68.783764123715827 3.8930488301130692 2 73.659243092141864 12.038827912702612 2 74.74338818254661 7.3788460086427055 2 80.737683936994571 17.870765515028332 2 89.631535273405959 6.2746464408522638 2 92.780067945037899 11.031158467352569 2 89.649515374723947 8.5407587633444173 2 3.1640814146481908 6.4723004235599451 2 10.408273119367244 1.3393107879191641 2 22.314117342142257 1.3393107879191641 2 34.860563972427379 12.633307242971835 2 37.927659151642416 6.2388338126266927 2 44.723776859548039 7.061170723106807 2 48.063185186422686 3.8540107943514879 2 52.848896131443716 7.5852426401485333 2 55.936620785160443 14.026092929674935 2 64.195225818067158 3.141422719128538 2 71.880336042634212 10.850213439022921 2 69.785418641048523 7.5671028484352503 2 77.446761462988789 1.3393107879191641 2 82.81796690345891 7.2997785987190875 2 82.919481059981123 10.150299510741664 2 94.241291656048276 4.542520001063699 2 93.25747677536917 15.814262820684229 2 10.463281463252327 6.7615618248033797 2 15.836992638447335 8.4226477055446765 2 26.373300218337175 1.3393107879191641 2 31.680085198344401 6.7802175361323966 2 41.396182541743627 7.6703656207008679 2 42.023438048959974 5.2662044706287832 2 49.079093956356289 15.79166188705034 2 50.098270922807586 3.2403612918713054 2 56.965613224113554 1.3393107879191641 2 64.966418181404421 8.4373376960287718 2 66.089306021245861 1.3393107879191641 2 71.206922933273859 16.041574231360681 2 76.489800484286263 9.2053028812072792 2 80.96258637311233 10.484371762485919 2 88.780419406044572 1.3393107879191641 2 89.363151536119133 14.537347558282395 2 95.521218653541254 1.3393107879191641 2 3.2847758098960846 13.350342736858675 2 12.109208755418623 6.0345051300527732 2 18.310464276875383 3.2089858193669953 2 39.096158189237528 7.150350501635466 2 34.595738733008368 1.3393107879191641 2 48.533646032627445 6.2906527004744088 2 45.957743470229985 11.493976964236504 2 56.63496569001736 10.113377903552621 2 59.575857547904654 6.845927449864373 2 59.638208617587878 3.1522930873396922 2 67.963124217801251 7.2796633323234072 2 74.02219540757892 1.3393107879191641 2 77.282176553726785 5.7701606715280009 2 81.437676233752185 7.1244644450325625 2 85.596354793324522 4.1169162223982099 2 91.932458468912799 3.624630299890617 2 96.261120694747873 9.599893857130283 2 6.1152613329216612 3.5714463612942766 2 16.32305575607846 1.9114494302431422 2 22.400306130952107 13.732509360675159 2 32.997426759231224 2.731535730063404 2 35.609188025730795 14.652256193254022 2 44.650408333493949 5.0597734697412626 2 42.832194047270661 12.873804075902877 2 52.679009340118036 3.2669375849621991 2 53.766375528161809 5.6722159143870048 2 61.008222080952855 9.1845913999314153 2 71.053072119881705 2.3252891756515903 2 74.327050701544991 14.408565411968466 2 75.136443506576867 8.6057796032997622 2 82.667382085054342 11.434194610509532 2 87.29474821282696 6.8120649805697422 2 88.481925886456906 13.444962586597658 2 93.163735627020117 8.5420085400471795 2 5.4234447447312233 1.3393107879191641 2 13.395285889915256 1.3393107879191641 2 22.103036079604351 2.9634876819044016 2 33.049678981584144 18.753443539080251 2 36.852911276187051 1.3393107879191641 2 40.041488485833611 12.069556676515989 2 50.19826880613239 1.3393107879191641 2 50.917838298967609 12.597117664369236 2 59.810499793383315 11.351556619931269 2 62.039268470396827 3.5863787935789233 2 69.354576704519673 13.034004297976464 2 70.76344653947659 9.9039333389133812 2 80.833999609581014 1.3393107879191641 2 82.991311865122199 2.4802012682474506 2 85.576883139955044 13.35164219575813 2 91.045424298001606 1.3393107879191641 2 90.501328293421196 15.56279082151646 2 6.0152611158364682 8.9940772595473284 2 16.958733153464014 10.496333592193917 2 22.145948377005315 5.5224372340318864 2 32.781954713388117 9.0890843462960582 2 38.6392717754266 10.866138104295786 2 41.437552347123749 2.7270862151106821 2 49.354807583618559 11.812772303903545 2 51.703685015968603 5.2951956450194224 2 54.930165745183373 1.3393107879191641 2 64.865700822891171 16.719601213094766 2 65.850281012245986 4.6382808518471208 2 75.352564249122324 15.971727856134089 2 80.185343863119414 15.786681620230228 2 78.975848160615925 4.9245845684974086 2 87.003460296827384 2.3914800221151431 2 86.724228724499113 11.543224555710077 2 94.425258177976545 1.3393107879191641 2 4.4484352689832267 7.9359174892394355 2 14.636472567968477 9.8548691741914265 2 21.337139147928607 8.0469474270146666 2 35.553436954982871 6.1728925140782636 2 34.548303427474373 4.9742882576210059 2 46.981707212243336 1.3393107879191641 2 46.860178110257202 6.4119266538923219 2 53.421528929722761 12.306811724652901 2 57.977540161123017 7.5310637034706209 2 60.651121834906981 4.2818343539677608 2 67.936116666888324 4.9861177889850046 2 72.186453583454053 4.8354372727344641 2 76.114102132493372 3.3233770928383359 2 82.076997935807555 3.7034240107854193 2 85.098114771039235 7.7576381209426426 2 88.999526503756925 7.2557409650106797 2 93.333686786606364 13.453572676557348 2 7.9632672640567161 6.0769064313203716 2 13.599821807661058 5.8559566497849085 2 19.539679684304325 9.3115786151165132 2 31.115766952910221 1.3393107879191641 2 36.21943088226574 11.799889500956358 2 41.306849022846812 1.3393107879191641 2 40.653508166292127 14.554995356601758 2 54.731019525777562 3.1080067429602121 2 56.248823076377697 7.5139548223487038 2 62.726924411577691 15.880128781050683 2 69.312218153525535 1.3393107879191641 2 73.301471376034556 10.669732151840805 2 74.337760834990178 4.9127260324433815 2 83.181386007147012 18.672865325889653 2 89.305883745188879 3.4352598796447387 2 90.556592092881218 11.693911833848979 2 91.250079267118295 9.2454451852764468 2 1.3393107879191641 6.5486324485659821 2 11.875206625127735 2.5886202346471578 2 19.844596560309636 1.3393107879191641 2 34.328988485967109 10.703330458858279 2 36.863937919287807 5.6138712830584545 2 44.491918324521727 9.3836689544521494 2 50.250779840505658 4.9594055545390106 2 51.907230561568483 11.195352952702494 2 56.28218479863871 18.436700641390978 2 63.060818674483926 6.9895800504447578 2 68.77860176683356 11.122683643928587 2 69.957806387727587 5.8167845011686294 2 78.642395440632484 2.9049101528054777 2 80.303155831356065 8.0585097316743326 2 81.918116102096363 14.468817421634842 2 92.993974523572447 5.0327911417786169 2 94.4368477536418 19.777108620473765 2 8.3562206096752796 9.8265227510938562 2 18.137550353429248 6.6602178876511875 2 25.405389023478719 2.5917339238818147 2 29.997880893486737 4.8520727887069794 2 39.820891765488085 9.6482034065865889 2 41.96551072676872 8.7819031216718795 2 46.000507342076844 16.189478645768656 2 51.400322491854745 1.3393107879191641 2 58.019365825992786 1.3393107879191641 2 63.828008878432875 9.0637306458444318 2 68.615212389466834 2.5780544197309068 2 74.189683101840643 17.949586770220552 2 76.283064965550409 13.468123295063942 2 79.326424930327562 11.686065413254699 2 87.918252817401253 4.310596761202464 2 86.093669449045649 16.721145629737784 2 97.554507992348647 1.3393107879191641 2 3.0277172382704145 8.8781766639045561 2 12.354832085772488 10.379526091934206 2 19.585157056969781 7.5505974552221735 2 37.375950258159186 7.6890167933193183 2 35.825730407636691 2.685260636529839 2 46.483798363167672 4.7851293958090331 2 46.583702335676605 9.6620708068130483 2 54.350239573025263 11.017437131144282 2 58.145976808906283 10.366287486346559 2 59.588313793013782 5.1793347703849815 2 68.647626566329436 9.6674656428938146 2 73.365548295878455 2.7086542985502522 2 75.627322656594018 4.7241211151620419 2 80.542669711125555 4.9821435946798314 2 84.092342232566239 4.7195751095030163 2 90.948392046443615 5.4865816039959734 2 97.213071574412467 8.6162186012546318 2 4.8922462955546351 3.0220789206551215 2 15.067935849159968 3.5685004747573412 2 23.15153544226564 8.079739020504503 2 32.512791592970935 4.7468770814490915 2 37.566024317296986 15.447247802850567 2 42.697230411687613 3.2913737213810283 2 44.084101433038235 15.281121387957141 2 53.529922702445852 2.3993935765100174 2 53.946564821291695 8.7045195710896106 2 62.792414879289922 12.688537013596459 2 70.039944820682564 3.2968925591368863 2 72.583491215766585 13.850568104129104 2 76.359548001784049 6.7197793524728366 2 80.460292671220202 12.452023760291999 2 86.33625849494419 7.3584079460634992 2 91.973172573081385 14.421911935564452 2 94.366048626508515 8.8930740414410021 2 1.3393107879191641 2.5513136472589628 2 13.448648813806123 4.1282268839584519 2 23.793673659953253 2.8898754679665104 2 33.951467163009426 14.947347990523925 2 37.922320471207478 2.6890228874809359 2 42.307771048200486 10.493691173511358 2 48.157609558063335 1.3393107879191641 2 51.956697876846683 15.16623996033274 2 59.670105116511579 9.5914554851883533 2 62.639815531606217 4.8786677016355062 2 69.110900770043813 16.015193117308851 2 73.520002181978597 6.9142184716988382 2 79.931389777247901 2.6673966674950793 2 82.08696878192869 4.8837414147058658 2 84.333247921252195 10.570706463098505 2 91.028662889996184 2.3750132994121294 2 90.591090829824424 19.816195952031684 2 5.6180725255670767 12.877987310210871 2 17.238554317809548 7.8164265140715177 2 25.359036149767782 4.1356141122159213 2 31.284953934679802 8.0250590685142029 2 39.123269943999297 13.923678713627854 2 40.166375400287279 3.8737692363953968 2 48.567545501094166 13.433436018181377 2 50.940942975495275 7.0187637838154764 2 55.78862064443102 5.0211031439076983 2 65.72359420036365 10.098794577476548 2 64.743451250194269 5.5745667319297336 2 78.487370613698303 18.540186360981682 2 77.979063257050655 12.675569599260918 2 78.906711602606791 9.1142264571505134 2 86.355146933430021 1.3393107879191641 2 87.136159241716712 12.901456099367131 2 94.34658018365289 2.9243402933322002 2 3.0875430483299815 3.2217413026844697 2 13.255289071900298 14.503571768500581 2 20.872025668666797 3.5135941328914755 2 33.789831539048535 8.2801133249770427 2 33.948920093620622 3.3238588749304987 2 45.59729159146638 2.7301475597723903 2 46.742473748747607 8.0499857768577456 2 54.216562504570717 14.496841555776795 2 58.555577390748155 3.153431225764737 2 60.030952003503394 1.3393107879191641 2 66.459278062859397 3.0601434072785136 2 72.335397624014036 7.1566137868270445 2 75.115260175381124 2.5907906374461787 2 83.050549948931234 1.3393107879191641 2 86.007756506150614 9.3506071328379274 2 88.669598735149805 10.85927688952563 2 95.049274476660827 10.066814184989182 2 9.4718604316886186 5.4702620810570952 2 14.559111204858965 7.1470823435854287 2 21.514796706618476 11.639877476505225 2 28.253981706212734 4.7035206883146614 2 37.359890701765785 9.9569743865483922 2 43.82502821934046 2.7575166585977815 2 41.911978711563627 16.634157843170154 2 56.999716501679544 5.2931219397147373 2 55.224757230953486 9.9470829390984452 2 65.685746395860974 14.224695728538537 2 70.037484780538193 4.608359643006696 2 74.854922996774633 12.765276490458115 2 75.185305114237693 6.0864450764102038 2 82.396690817310954 16.269761231449959 2 91.005069820506662 6.8200064511047174 2 92.672575785156837 9.758974116257976 2 89.39871268310165 9.7281448335670397 2 4.7134900466921019 5.403297789539792 2 9.1893251304664751 1.3393107879191641 2 21.07245359912605 1.3393107879191641 2 33.302967654575191 12.916476000974916 2 38.931072338424499 5.1708532924233941 2 43.216243226329937 5.9120748132941401 2 49.177536376637867 3.6944094388855939