<?xml version="1.0" ?>
<VTKFile byte_order="LittleEndian" type="UnstructuredGrid" version="0.1">
<UnstructuredGrid>
<Piece NumberOfCells="0" NumberOfPoints="193">
<Points>
<DataArray NumberOfComponents="3" format="ascii" type="Float32">0 0 0 31.387857353548807 11.994639263242611 2 32.972070789306429 19.065961613209389 2 63.115843562880386 1.5999999999999999 2 67.965719530239497 6.9046389323913182 2 91.889630374282618 4.6049506080392497 2 98.4 1.5999999999999999 2 33.105726559877048 1.5999999999999999 2 35.698786088325534 2.4910236038047686 2 61.86505350573573 4.8807339041390829 2 66.182338335915588 10.342915851437191 2 98.4 16.046482521123242 2 94.221224602955374 7.4009510613135632 2 35.72351595243444 8.3996285116783191 2 38.750415705746903 1.5999999999999999 2 63.482192448442888 9.9691353659745463 2 65.558613141449712 3.8984220971179795 2 91.383651936911903 7.3131449823603534 2 97.421776346208716 7.5908741244826725 2 30.093568843793388 10.813771234201601 2 33.644355731586543 6.0031720193819416 2 61.326748650354332 9.7694469082852127 2 63.913840634865636 14.28186521787841 2 94.800306442163475 17.059968730408375 2 92.656412961013288 6.2781975715423801 2 35.374631636445315 10.002712271786956 2 33.455362439809598 16.460073344501016 2 61.247835027344934 2.8599805276450323 2 65.860944778380158 1.5999999999999999 2 89.946940057806003 5.7105906968230205 2 98.4 8.3517456679315085 2 32.251925746520747 6.4831293468976963 2 36.173893922585961 5.2211145382774742 2 58.450471212904844 1.5999999999999999 2 66.025882202374007 5.1098490793993792 2 94.417343079245185 10.406862968618142 2 98.4 9.8680143686083994 2 37.164999518169409 6.0467195949172785 2 40.98144636307152 3.82272109743925 2 64.50324544785822 18.507322956072738 2 63.475045321415145 5.6328268198712701 2 90.775003882703658 15.150205197288535 2 95.391211256141844 1.5999999999999999 2 28.153673064665703 7.3083838436294135 2 34.424982391048651 1.5999999999999999 2 61.768337333081227 7.086576262900512 2 63.88781086799338 8.6441090029430896 2 91.393680105315411 17.122114726314997 2 93.811400577602555 3.124894770165183 2 33.31184902737489 12.34512586194325 2 35.972697714595157 15.925692262033721 2 62.870941534122331 3.0716536829893295 2 67.761766161079265 5.2845115321709333 2 92.265103888100811 1.5999999999999999 2 96.40006163336605 1.5999999999999999 2 31.05511178700808 1.5999999999999999 2 36.360019055911877 3.9877409499020988 2 60.312664859036929 4.509535196756449 2 66.681170237657355 7.648134258151762 2 97.02747771904582 11.701971289403422 2 94.5896840600536 8.8354977433731907 2 36.652918104184209 10.782199318709292 2 37.846944372383881 1.5999999999999999 2 62.383831424956341 16.16057477021381 2 63.920310362969182 1.5999999999999999 2 92.917529864588516 9.106646087128814 2 98.4 5.4341795335278062 2 30.616367555523293 9.4481004566527336 2 32.217214162391976 3.3829513211762117 2 62.09847656184467 13.446922614765777 2 65.120939582599235 11.593679295012258 2 92.929965064202079 16.286667686184753 2 93.146341491384504 4.2542785699402605 2 33.478121747654747 7.4568794760925625 2 36.091598420841464 12.097542969428492 2 59.880566794565361 1.5999999999999999 2 67.883712373731441 3.6102980906251272 2 88.951580648691603 8.3582367451080817 2 97.550022655772878 4.1189527084872966 2 29.661337719821645 7.8200558505528805 2 34.400838108062686 8.3515338568775146 2 59.050192018806058 3.6693696684663171 2 64.981909060232752 7.4383369004653028 2 94.886176830899842 13.198319499113023 2 95.919492471082464 8.9499562798802312 2 37.636919575056837 4.4574899438787519 2 41.840210904152741 5.2357007900874111 2 62.692928733937592 18.999583503055465 2 64.745831685057937 5.6973436410002654 2 93.814609257357787 12.029295424672457 2 96.363367564079809 3.1466004632319979 2 28.811969693956431 6.054529139618734 2 34.769783649982429 3.5980727932296843 2 63.186076785390021 4.2994149825776846 2 62.932007906027586 7.6503585951755166 2 89.283009544353007 16.060018194347698 2 93.302320095660164 1.5999999999999999 2 32.380730575435344 13.801992746016003 2 34.91217523528092 17.413213030871372 2 62.303931513206564 1.5999999999999999 2 69.095213707977024 6.5587845418971042 2 90.689120153432341 4.301560410085294 2 98.4 2.6375616117282079 2 33.602128582727211 2.5212642424739045 2 36.744932398760845 1.5999999999999999 2 60.960964700059897 5.7974044993751468 2 66.226863153166249 8.9805813342682566 2 98.4 13.83815476408083 2 95.169135719627704 6.1658535934548473 2 36.877638615572472 9.2451572438072525 2 39.675232622533386 2.7550045139278878 2 63.779773515982285 11.468244572782899 2 66.794768095262128 2.9464880893531551 2 91.026768455972601 8.6512947760035122 2 95.939448178964781 7.2948714990979813 2 29.159930780999701 12.236159697387114 2 33.462174946449025 4.2190339182941115 2 62.42414202629832 10.684274037957881 2 63.606420016134877 12.827018686788749 2 97.053320959781644 18.078859134831362 2 91.235944628625845 5.8832599413960649 2 34.301953887887336 10.922188788057184 2 33.669039173819449 14.664850333998141 2 60.620159100436027 1.5999999999999999 2 65.303801890285172 2.3218854215135485 2 89.944023291485053 7.3381419078172874 2 98.4 6.7183487386879213 2 32.120199176205098 8.147461632120681 2 34.9826544973183 6.2124004626363627 2 59.148926082052618 1.5999999999999999 2 65.817168889855324 6.5744997962985989 2 95.654000710763398 11.226663618159535 2 98.4 11.769658079839168 2 37.114188412242484 7.5008715627241944 2 40.625339689133774 4.8080837454108085 2 63.378923234877114 17.334939144465206 2 63.898027198303978 6.8918855556152447 2 92.103847754438135 14.21846335759651 2 95.206926591201835 3.28776288591239 2 28.961888656958671 9.048765105861305 2 35.522592818576108 1.5999999999999999 2 62.407892588784144 6.0625409916634867 2 64.785896888845471 10.18160412391766 2 93.558638241250975 19.171056609711162 2 94.70542292050466 4.6642031668935058 2 32.497089498744067 10.949868324044951 2 35.194640952272643 14.480333797849189 2 64.136674976567363 3.2289918122930481 2 69.231572276089238 5.5430774731893635 2 92.286148773228845 3.1361338032167074 2 97.65282021113299 1.5999999999999999 2 32.098329845183159 1.5999999999999999 2 38.355184887923372 3.3243298691731367 2 59.780758854149674 6.0584324332554367 2 66.928878797263806 6.1990130691539065 2 96.626202762313412 13.603974362175988 2 92.842963865132873 7.7125984893255453 2 38.205617455243235 11.56069624772406 2 37.176298902834766 2.7608749286490464 2 62.500447781499133 14.771298819752808 2 64.764855040431542 1.5999999999999999 2 92.799070640281684 10.558096604539637 2 96.755687590395482 5.9459420020764737 2 32.031268402117092 9.5449110973611493 2 32.383028226460986 4.9903678824802329 2 60.710313425176686 12.963313055205916 2 65.018020685828759 13.337890762903292 2 93.983502946725878 14.658263976883186 2 93.686676297842382 5.6164404368955081 2 33.64150699060761 9.5299449968673038 2 34.729769027220534 12.61782178315692 2 61.479619566683894 1.5999999999999999 2 66.819901044237426 4.2035817587456341 2 89.898123421212375 9.4308081690303087 2 98.4 4.0800402743872715 2 30.926460920294449 7.3788409743628627 2 35.78605773059261 7.0341093407511224 2 60.134631534308618 3.4017223368453426 2 65.138028235416883 8.7279187875774404 2 96.171618411430401 15.389406034159718 2 97.115140871968848 9.779018955562977 2 39.342648042082487 4.118533822555805 2 41.039916095847794 6.5448811506517819 2 62.607845926480316 21.072179071000733 2 64.514037317106741 4.3883680073811737 2 92.38646546398563 12.665015479540186 2 96.110166638708733 4.6747489144012562 2 27.256425933014917 5.7073302720082468 2 34.766787991184401 4.7568547265574077 2 61.764605951744286 3.9033598042568682 2 62.468643056867236 8.9198156091356555 2 88.050507003799098 14.87769709144106 2 94.325459587241099 1.5999999999999999 2 </DataArray>
</Points>
<Cells>
<DataArray Name="connectivity" format="ascii" type="Int32">0</DataArray>
<DataArray Name="offsets" format="ascii" type="Int32">0</DataArray>
<DataArray Name="types" format="ascii" type="UInt8">1</DataArray>
</Cells>
<PointData>
<DataArray Name="Points" NumberOfComponents="3" format="ascii" type="Float32">0 0 0 31.387857353548807 11.994639263242611 2 32.972070789306429 19.065961613209389 2 63.115843562880386 1.5999999999999999 2 67.965719530239497 6.9046389323913182 2 91.889630374282618 4.6049506080392497 2 98.4 1.5999999999999999 2 33.105726559877048 1.5999999999999999 2 35.698786088325534 2.4910236038047686 2 61.86505350573573 4.8807339041390829 2 66.182338335915588 10.342915851437191 2 98.4 16.046482521123242 2 94.221224602955374 7.4009510613135632 2 35.72351595243444 8.3996285116783191 2 38.750415705746903 1.5999999999999999 2 63.482192448442888 9.9691353659745463 2 65.558613141449712 3.8984220971179795 2 91.383651936911903 7.3131449823603534 2 97.421776346208716 7.5908741244826725 2 30.093568843793388 10.813771234201601 2 33.644355731586543 6.0031720193819416 2 61.326748650354332 9.7694469082852127 2 63.913840634865636 14.28186521787841 2 94.800306442163475 17.059968730408375 2 92.656412961013288 6.2781975715423801 2 35.374631636445315 10.002712271786956 2 33.455362439809598 16.460073344501016 2 61.247835027344934 2.8599805276450323 2 65.860944778380158 1.5999999999999999 2 89.946940057806003 5.7105906968230205 2 98.4 8.3517456679315085 2 32.251925746520747 6.4831293468976963 2 36.173893922585961 5.2211145382774742 2 58.450471212904844 1.5999999999999999 2 66.025882202374007 5.1098490793993792 2 94.417343079245185 10.406862968618142 2 98.4 9.8680143686083994 2 37.164999518169409 6.0467195949172785 2 40.98144636307152 3.82272109743925 2 64.50324544785822 18.507322956072738 2 63.475045321415145 5.6328268198712701 2 90.775003882703658 15.150205197288535 2 95.391211256141844 1.5999999999999999 2 28.153673064665703 7.3083838436294135 2 34.424982391048651 1.5999999999999999 2 61.768337333081227 7.086576262900512 2 63.88781086799338 8.6441090029430896 2 91.393680105315411 17.122114726314997 2 93.811400577602555 3.124894770165183 2 33.31184902737489 12.34512586194325 2 35.972697714595157 15.925692262033721 2 62.870941534122331 3.0716536829893295 2 67.761766161079265 5.2845115321709333 2 92.265103888100811 1.5999999999999999 2 96.40006163336605 1.5999999999999999 2 31.05511178700808 1.5999999999999999 2 36.360019055911877 3.9877409499020988 2 60.312664859036929 4.509535196756449 2 66.681170237657355 7.648134258151762 2 97.02747771904582 11.701971289403422 2 94.5896840600536 8.8354977433731907 2 36.652918104184209 10.782199318709292 2 37.846944372383881 1.5999999999999999 2 62.383831424956341 16.16057477021381 2 63.920310362969182 1.5999999999999999 2 92.917529864588516 9.106646087128814 2 98.4 5.4341795335278062 2 30.616367555523293 9.4481004566527336 2 32.217214162391976 3.3829513211762117 2 62.09847656184467 13.446922614765777 2 65.120939582599235 11.593679295012258 2 92.929965064202079 16.286667686184753 2 93.146341491384504 4.2542785699402605 2 33.478121747654747 7.4568794760925625 2 36.091598420841464 12.097542969428492 2 59.880566794565361 1.5999999999999999 2 67.883712373731441 3.6102980906251272 2 88.951580648691603 8.3582367451080817 2 97.550022655772878 4.1189527084872966 2 29.661337719821645 7.8200558505528805 2 34.400838108062686 8.3515338568775146 2 59.050192018806058 3.6693696684663171 2 64.981909060232752 7.4383369004653028 2 94.886176830899842 13.198319499113023 2 95.919492471082464 8.9499562798802312 2 37.636919575056837 4.4574899438787519 2 41.840210904152741 5.2357007900874111 2 62.692928733937592 18.999583503055465 2 64.745831685057937 5.6973436410002654 2 93.814609257357787 12.029295424672457 2 96.363367564079809 3.1466004632319979 2 28.811969693956431 6.054529139618734 2 34.769783649982429 3.5980727932296843 2 63.186076785390021 4.2994149825776846 2 62.932007906027586 7.6503585951755166 2 89.283009544353007 16.060018194347698 2 93.302320095660164 1.5999999999999999 2 32.380730575435344 13.801992746016003 2 34.91217523528092 17.413213030871372 2 62.303931513206564 1.5999999999999999 2 69.095213707977024 6.5587845418971042 2 90.689120153432341 4.301560410085294 2 98.4 2.6375616117282079 2 33.602128582727211 2.5212642424739045 2 36.744932398760845 1.5999999999999999 2 60.960964700059897 5.7974044993751468 2 66.226863153166249 8.9805813342682566 2 98.4 13.83815476408083 2 95.169135719627704 6.1658535934548473 2 36.877638615572472 9.2451572438072525 2 39.675232622533386 2.7550045139278878 2 63.779773515982285 11.468244572782899 2 66.794768095262128 2.9464880893531551 2 91.026768455972601 8.6512947760035122 2 95.939448178964781 7.2948714990979813 2 29.159930780999701 12.236159697387114 2 33.462174946449025 4.2190339182941115 2 62.42414202629832 10.684274037957881 2 63.606420016134877 12.827018686788749 2 97.053320959781644 18.078859134831362 2 91.235944628625845 5.8832599413960649 2 34.301953887887336 10.922188788057184 2 33.669039173819449 14.664850333998141 2 60.620159100436027 1.5999999999999999 2 65.303801890285172 2.3218854215135485 2 89.944023291485053 7.3381419078172874 2 98.4 6.7183487386879213 2 32.120199176205098 8.147461632120681 2 34.9826544973183 6.2124004626363627 2 59.148926082052618 1.5999999999999999 2 65.817168889855324 6.5744997962985989 2 95.654000710763398 11.226663618159535 2 98.4 11.769658079839168 2 37.114188412242484 7.5008715627241944 2 40.625339689133774 4.8080837454108085 2 63.378923234877114 17.334939144465206 2 63.898027198303978 6.8918855556152447 2 92.103847754438135 14.21846335759651 2 95.206926591201835 3.28776288591239 2 28.961888656958671 9.048765105861305 2 35.522592818576108 1.5999999999999999 2 62.407892588784144 6.0625409916634867 2 64.785896888845471 10.18160412391766 2 93.558638241250975 19.171056609711162 2 94.70542292050466 4.6642031668935058 2 32.497089498744067 10.949868324044951 2 35.194640952272643 14.480333797849189 2 64.136674976567363 3.2289918122930481 2 69.231572276089238 5.5430774731893635 2 92.286148773228845 3.1361338032167074 2 97.65282021113299 1.5999999999999999 2 32.098329845183159 1.5999999999999999 2 38.355184887923372 3.3243298691731367 2 59.780758854149674 6.0584324332554367 2 66.928878797263806 6.1990130691539065 2 96.626202762313412 13.603974362175988 2 92.842963865132873 7.7125984893255453 2 38.205617455243235 11.56069624772406 2 37.176298902834766 2.7608749286490464 2 62.500447781499133 14.771298819752808 2 64.764855040431542 1.5999999999999999 2 92.799070640281684 10.558096604539637 2 96.755687590395482 5.9459420020764737 2 32.031268402117092 9.5449110973611493 2 32.383028226460986 4.9903678824802329 2 60.710313425176686 12.963313055205916 2 65.018020685828759 13.337890762903292 2 93.983502946725878 14.658263976883186 2 93.686676297842382 5.6164404368955081 2 33.64150699060761 9.5299449968673038 2 34.729769027220534 12.61782178315692 2 61.479619566683894 1.5999999999999999 2 66.819901044237426 4.2035817587456341 2 89.898123421212375 9.4308081690303087 2 98.4 4.0800402743872715 2 30.926460920294449 7.3788409743628627 2 35.78605773059261 7.0341093407511224 2 60.134631534308618 3.4017223368453426 2 65.138028235416883 8.7279187875774404 2 96.171618411430401 15.389406034159718 2 97.115140871968848 9.779018955562977 2 39.342648042082487 4.118533822555805 2 41.039916095847794 6.5448811506517819 2 62.607845926480316 21.072179071000733 2 64.514037317106741 4.3883680073811737 2 92.38646546398563 12.665015479540186 2 96.110166638708733 4.6747489144012562 2 27.256425933014917 5.7073302720082468 2 34.766787991184401 4.7568547265574077 2 61.764605951744286 3.9033598042568682 2 62.468643056867236 8.9198156091356555 2 88.050507003799098 14.87769709144106 2 94.325459587241099 1.5999999999999999 2 </DataArray>
<DataArray Name="forces" NumberOfComponents="3" format="ascii" type="Float32">0 0 0 -0.1576029172431227 0.58459362524706826 0.0 -0.56390330344580941 1.0930526899566737 0.0 0.0095494612893112785 -4.6187581571549607 0.0 -0.083148966038590677 0.33132086651136694 0.0 0.37715692195487061 0.34875390523059135 0.0 4.5237304745176834 -3.7904363100315872 0.0 -0.37728216048459329 -4.3915507900894468 0.0 -0.26237878796814229 -0.01387887110976771 0.0 0.048978209053585575 0.30577046104961625 0.0 -0.095549368474130453 0.57182126236444364 0.0 1.3683569994403224 0.75086952405040164 0.0 0.2670603188543208 0.29963653216624053 0.0 -0.2957332854918362 0.3312600581247771 0.0 -0.29874261935342483 -4.4643647065229146 0.0 0.062031507224093785 0.28827003672703 0.0 0.067163722438967843 0.17371793076565395 0.0 0.38228330820187673 0.39038517289648955 0.0 0.15967031214166269 0.2713395872854738 0.0 -0.074667455112777281 0.39032528101665587 0.0 -0.33006453400237462 0.33496720356138421 0.0 -0.11607189055152856 0.50066990815429369 0.0 0.028356419146097406 0.63249169677341721 0.0 0.35817751029001155 0.93246183475296573 0.0 0.23922411464785931 0.47318734939943519 0.0 -0.36480278198277682 0.43402653727806584 0.0 -0.32337398802568296 0.80548268763423359 0.0 -0.10963520435325608 0.42420474480753179 0.0 -0.13802775650631283 -5.2797490548157731 0.0 0.17679439346545403 0.42031659530971388 0.0 3.6831440562496156 0.7112766184264534 0.0 -0.36669966326952907 0.46841147111938791 0.0 -0.29680163717178742 0.47347044850045039 0.0 0.11042539475360602 -3.8613099839911058 0.0 0.026801405164389558 0.25600153493185041 0.0 0.15495299747211258 0.46116721701728564 0.0 3.3812477371481338 0.63516404769883239 0.0 -0.23693151607796725 0.48683526579478359 0.0 -0.42355235709689698 0.20465056664920611 0.0 -0.035823233352409639 0.85038258793426147 0.0 0.072697149602362621 0.38407404703292836 0.0 0.36929539987131932 0.67921542127723877 0.0 0.14049954283021671 -3.4596540675323495 0.0 -0.40505153247838915 0.39948628603972414 0.0 -0.32297836294080989 -4.3851125985910979 0.0 0.08660923652411967 0.28336150374861724 0.0 0.06460361481793564 0.29065474486374426 0.0 0.56858108440774247 0.79419122722143021 0.0 0.050143314574536246 0.17334597667453899 0.0 -0.27826228884920506 0.58965260930834162 0.0 -0.37075171890440561 0.80324033350321633 0.0 -0.026794418546724375 0.46097576732470791 0.0 0.098112947379809759 0.44833640913252276 0.0 0.25223120550594147 -3.9124953620185208 0.0 0.11481123891301914 -3.6345128381300675 0.0 -0.13552940216376552 -3.7692472526288259 0.0 -0.45433103886220882 0.3133223626583973 0.0 0.15032391607760143 0.27536013752391769 0.0 -0.058567723529764998 0.39871400850065886 0.0 -0.048999727234791582 0.70437619556420039 0.0 0.029833986021158942 0.42854213827829291 0.0 -0.30640856597981136 0.4159217320633859 0.0 -0.26460784271786075 -4.7513949027106905 0.0 -0.026526162007805852 0.72701947418309898 0.0 -0.0913914663606194 -4.6330483265582911 0.0 0.19575916085121925 0.58451980238564305 0.0 3.57127799126871 0.50841269349615525 0.0 -0.32156333847020391 0.26569112299103426 0.0 -0.26369450832273844 0.475405948876507 0.0 -0.031719240048631442 0.63634496764039805 0.0 0.01235114795347711 0.5053819277138617 0.0 0.48737691853967102 0.93413930390671385 0.0 0.36339607432224402 0.5191766552979864 0.0 -0.22971138358915721 0.31043474619618716 0.0 -0.17092411952720865 0.50346835724578209 0.0 0.34467140964649512 -4.0873968964445071 0.0 -0.0085230016703450873 0.3132538575946231 0.0 0.30016807126006451 0.5395705777437434 0.0 0.17855926914221776 0.66704924614784478 0.0 -0.42701486837565877 0.22046634218922079 0.0 -0.33170488160682088 0.53585547001820288 0.0 0.0091113339369290891 0.088163575078476081 0.0 0.06005575569446861 0.43100414275704857 0.0 0.19750563472500343 0.80213735741610648 0.0 0.11709800977889451 0.55028419754339253 0.0 -0.42534907999980226 0.34775641142381619 0.0 -0.25617720943831152 0.34457367365877045 0.0 0.11262780748448886 0.9001680538228477 0.0 -0.02484766375105163 0.31300304568571224 0.0 0.47854616845232689 0.54776928327354291 0.0 0.19840192601002005 0.32496746644972008 0.0 -0.20418224316298006 0.32601680146740297 0.0 -0.24501993935582142 0.28788384152462587 0.0 0.051843363734444203 0.29917309569508044 0.0 -0.036997334553600769 0.47588833668579333 0.0 0.52849152659935528 0.64640466146008879 0.0 0.19152797803144822 -3.8469992503825119 0.0 -0.2596855059514569 0.60101201309723118 0.0 -0.52021235284140011 0.82092973229481614 0.0 0.12302546453546365 -4.6398013856007312 0.0 -0.057204216594433727 0.27649989020019616 0.0 0.29610296895306454 0.39945570729935831 0.0 3.8936875510397759 0.35174361272866606 0.0 -0.20491385734643736 0.18802046446085696 0.0 -0.17263701970351597 -4.9089739177330056 0.0 0.062058623376225086 0.42614412408570934 0.0 0.047730661529891583 0.54079165976592114 0.0 2.1535350695793185 0.60344384668416362 0.0 0.4552905491200252 0.069376625377295831 0.0 -0.35934242167886143 0.51176058481425368 0.0 -0.31655183385255353 0.39966466828093689 0.0 -0.026115781960671658 0.46953220250465233 0.0 -0.035979753347248788 0.48277712626351388 0.0 0.2100990470254139 0.44284131192584153 0.0 -0.16160740418992459 0.74477793585064211 0.0 -0.089588141653923481 0.50401970987763256 0.0 -0.24807935542101578 0.2555338707170674 0.0 0.04008008810456426 0.32322752648743069 0.0 0.022308784525187475 0.57754401747823425 0.0 0.356037801767639 1.2940797876271442 0.0 0.20445331014799067 0.37711178612088492 0.0 -0.22661648039315901 0.71130771604792931 0.0 -0.36372692717049704 0.67194234972625688 0.0 0.32278298071919043 -4.562881850704934 0.0 -0.067083842376435082 0.13503094806579449 0.0 0.3917054700189353 0.52238945775426937 0.0 3.5545733055084154 0.56923702848037772 0.0 -0.15826189219153852 0.55226554870271605 0.0 -0.41319788453555489 0.43418408140627207 0.0 0.18206995701286433 -3.6972300960244877 0.0 -0.11179623045630252 0.31412800135842006 0.0 0.092445510958102717 0.5903932318038525 0.0 3.1204099495124287 0.56685402294833409 0.0 -0.27306121707754616 0.51815627712789958 0.0 -0.31059612124450031 0.26366253307605803 0.0 0.087797620474876825 0.69562902895793344 0.0 0.019092791879707818 0.42276675732547875 0.0 0.33193251381307798 0.77368834938995701 0.0 0.20684461614928673 0.2677696895624464 0.0 -0.20839265613545133 0.4781018379702433 0.0 -0.25827100667533565 -5.0109752280055009 0.0 0.11315378756952935 0.31434691252431346 0.0 -0.084697450672749641 0.48969990082518194 0.0 0.54478974861930507 1.0785043735614259 0.0 0.11884150976860017 0.049783594542308705 0.0 -0.19572184860224151 0.43604741500721256 0.0 -0.36236015416744549 0.73823769549627172 0.0 0.0082319883387511616 0.4151130476417253 0.0 -0.085827897351290539 0.29701872446713196 0.0 0.17565994825551362 0.47822238282845569 0.0 0.10746118704644259 -3.8659696897731362 0.0 -0.24310780741457677 -3.5790511865088517 0.0 -0.33699948833673887 0.39821627247274027 0.0 -0.021690383927495893 0.20979354009851517 0.0 -0.14671999573075578 0.31817929819476709 0.0 0.063387752499734662 0.82341285637108297 0.0 0.29359280837840235 0.58889880421564178 0.0 -0.34824397046296007 0.50294858587751223 0.0 -0.31706834882381141 0.44705014648278768 0.0 0.097906884082360798 0.67959441454569791 0.0 -0.19254710207018921 -5.3074092884230701 0.0 0.15015019534274182 0.756438076102395 0.0 0.063737438564517968 0.60014023815070461 0.0 -0.29094219532355242 0.55575348594050777 0.0 -0.27642520935695525 0.42218785856135566 0.0 0.22476707256424522 0.42821903154685759 0.0 -0.0315084083897057 0.44802147368453654 0.0 0.19329124274147663 0.78206791180507618 0.0 0.35245932744247466 0.67787387812230693 0.0 -0.16248337840751792 0.47681896149306957 0.0 -0.24487901271134815 0.59977043726179424 0.0 0.24741301881604588 -4.5015503681902045 0.0 0.11407246620196376 0.4044504466345285 0.0 0.30585819698594219 0.62835372713359416 0.0 4.6766345887203649 0.21711757309604937 0.0 -0.19210431005624684 0.48004208688711375 0.0 -0.27402345046871052 0.32274380186238855 0.0 -0.17096513683676684 0.24190752745088734 0.0 0.079997308898219932 0.47386145221729659 0.0 0.14994836590622918 1.0447941591685106 0.0 0.035002920123647863 0.50584032567275439 0.0 -0.35363808446270417 0.37375544117928006 0.0 -0.29790644524827448 0.40721722193349674 0.0 0.11927572314328444 1.0370401129036879 0.0 0.10530175825821897 0.2909956872968108 0.0 0.40113665383562536 0.7647269141095423 0.0 0.19111818652105517 0.33123937254812985 0.0 -0.25800696609842322 0.45125138658567548 0.0 -0.26737556858482298 0.28655344613561184 0.0 -0.0057624519205736191 0.32183695882652952 0.0 -0.053291824037574376 0.50457921002220785 0.0 0.33791863533468858 0.74583126579657022 0.0 0.19029566627566485 -3.8169382574283897 0.0 </DataArray>
<DataArray Name="radii" format="ascii" type="Float32">0 1.5999999999999999 1.5999999999999999 1.5999999999999999 1.5999999999999999 1.5999999999999999 1.5999999999999999 1.5999999999999999 1.5999999999999999 1.5999999999999999 1.5999999999999999 1.5999999999999999 1.5999999999999999 1.5999999999999999 1.5999999999999999 1.5999999999999999 1.5999999999999999 1.5999999999999999 1.5999999999999999 1.5999999999999999 1.5999999999999999 1.5999999999999999 1.5999999999999999 1.5999999999999999 1.5999999999999999 1.5999999999999999 1.5999999999999999 1.5999999999999999 1.5999999999999999 1.5999999999999999 1.5999999999999999 1.5999999999999999 1.5999999999999999 1.5999999999999999 1.5999999999999999 1.5999999999999999 1.5999999999999999 1.5999999999999999 1.5999999999999999 1.5999999999999999 1.5999999999999999 1.5999999999999999 1.5999999999999999 1.5999999999999999 1.5999999999999999 1.5999999999999999 1.5999999999999999 1.5999999999999999 1.5999999999999999 1.5999999999999999 1.5999999999999999 1.5999999999999999 1.5999999999999999 1.5999999999999999 1.5999999999999999 1.5999999999999999 1.5999999999999999 1.5999999999999999 1.5999999999999999 1.5999999999999999 1.5999999999999999 1.5999999999999999 1.5999999999999999 1.5999999999999999 1.5999999999999999 1.5999999999999999 1.5999999999999999 1.5999999999999999 1.5999999999999999 1.5999999999999999 1.5999999999999999 1.5999999999999999 1.5999999999999999 1.5999999999999999 1.5999999999999999 1.5999999999999999 1.5999999999999999 1.5999999999999999 1.5999999999999999 1.5999999999999999 1.5999999999999999 1.5999999999999999 1.5999999999999999 1.5999999999999999 1.5999999999999999 1.5999999999999999 1.5999999999999999 1.5999999999999999 1.5999999999999999 1.5999999999999999 1.5999999999999999 1.5999999999999999 1.5999999999999999 1.5999999999999999 1.5999999999999999 1.5999999999999999 1.5999999999999999 1.5999999999999999 1.5999999999999999 1.5999999999999999 1.5999999999999999 1.5999999999999999 1.5999999999999999 1.5999999999999999 1.5999999999999999 1.5999999999999999 1.5999999999999999 1.5999999999999999 1.5999999999999999 1.5999999999999999 1.5999999999999999 1.5999999999999999 1.5999999999999999 1.5999999999999999 1.5999999999999999 1.5999999999999999 1.5999999999999999 1.5999999999999999 1.5999999999999999 1.5999999999999999 1.5999999999999999 1.5999999999999999 1.5999999999999999 1.5999999999999999 1.5999999999999999 1.5999999999999999 1.5999999999999999 1.5999999999999999 1.5999999999999999 1.5999999999999999 1.5999999999999999 1.5999999999999999 1.5999999999999999 1.5999999999999999 1.5999999999999999 1.5999999999999999 1.5999999999999999 1.5999999999999999 1.5999999999999999 1.5999999999999999 1.5999999999999999 1.5999999999999999 1.5999999999999999 1.5999999999999999 1.5999999999999999 1.5999999999999999 1.5999999999999999 1.5999999999999999 1.5999999999999999 1.5999999999999999 1.5999999999999999 1.5999999999999999 1.5999999999999999 1.5999999999999999 1.5999999999999999 1.5999999999999999 1.5999999999999999 1.5999999999999999 1.5999999999999999 1.5999999999999999 1.5999999999999999 1.5999999999999999 1.5999999999999999 1.5999999999999999 1.5999999999999999 1.5999999999999999 1.5999999999999999 1.5999999999999999 1.5999999999999999 1.5999999999999999 1.5999999999999999 1.5999999999999999 1.5999999999999999 1.5999999999999999 1.5999999999999999 1.5999999999999999 1.5999999999999999 1.5999999999999999 1.5999999999999999 1.5999999999999999 1.5999999999999999 1.5999999999999999 1.5999999999999999 1.5999999999999999 1.5999999999999999 1.5999999999999999 1.5999999999999999 1.5999999999999999 1.5999999999999999 1.5999999999999999 1.5999999999999999 1.5999999999999999 1.5999999999999999 </DataArray>
</PointData>
<CellData/>
</Piece>
</UnstructuredGrid>
</VTKFile>
