<?xml version="1.0" ?>
<VTKFile byte_order="LittleEndian" type="UnstructuredGrid" version="0.1">
<UnstructuredGrid>
<Piece NumberOfCells="0" NumberOfPoints="15">
<Points>
<DataArray NumberOfComponents="3" format="ascii" type="Float32">0 0 0 33.16773044018926 6.3444072552894841 2 42.968582243665381 5.6440171237574361 2 82.354186478504204 1 2 38.330774392493339 6.9060634237993765 2 79.812882591018976 8.6543390604008934 2 30.947604838970129 7.2226824893840966 2 40.494731550930865 3.8851049686746557 2 81.575315726723801 7.5128897102797128 2 32.861603875926924 3.3535344056249641 2 39.891278925358222 8.9603755629468562 2 42.293168745985355 1 2 33.016477970230028 1.2 2 82.0487431229854 5.3332084435476625 2 81.353104456353464 2.9804497832014114 2 </DataArray>
</Points>
<Cells>
<DataArray Name="connectivity" format="ascii" type="Int32">0</DataArray>
<DataArray Name="offsets" format="ascii" type="Int32">0</DataArray>
<DataArray Name="types" format="ascii" type="UInt8">1</DataArray>
</Cells>
<PointData>
<DataArray Name="Points" NumberOfComponents="3" format="ascii" type="Float32">0 0 0 33.16773044018926 6.3444072552894841 2 42.968582243665381 5.6440171237574361 2 82.354186478504204 1 2 38.330774392493339 6.9060634237993765 2 79.812882591018976 8.6543390604008934 2 30.947604838970129 7.2226824893840966 2 40.494731550930865 3.8851049686746557 2 81.575315726723801 7.5128897102797128 2 32.861603875926924 3.3535344056249641 2 39.891278925358222 8.9603755629468562 2 42.293168745985355 1 2 33.016477970230028 1.2 2 82.0487431229854 5.3332084435476625 2 81.353104456353464 2.9804497832014114 2 </DataArray>
<DataArray Name="forces" NumberOfComponents="3" format="ascii" type="Float32">0 0 0 0.020286290644503144 0.034666608433974205 0.0 -0.046191214781065609 0.025934251210985013 0.0 0.00080183737657132936 -0.01358438867572891 0.0 -0.032302415498444502 0.041087905546917561 0.0 0.027723092600027213 0.036143690895665458 0.0 0.022856377590100906 0.036449588408454622 0.0 0.0 0.0 0.0 0.059159609370907584 0.05795708669080904 0.0 0.0058410063403321888 0.0082481829593834613 0.0 -0.011488019686328774 0.029483973069241137 0.0 0.054919314521207165 -0.068575198903974663 0.0 0.045708827665587898 -0.12976873083974477 0.0 0.011750182334894596 0.019885274085801277 0.0 -0.023016963061543383 0.022072061146437914 0.0 </DataArray>
<DataArray Name="radii" format="ascii" type="Float32">0 1.2 1.4 1 1.2 1.2 1.2 1 1 1 1.4 1 1.2 1.4 1.2 </DataArray>
</PointData>
<CellData/>
</Piece>
</UnstructuredGrid>
</VTKFile>
