<?xml version="1.0" ?>
<VTKFile byte_order="LittleEndian" type="UnstructuredGrid" version="0.1">
<UnstructuredGrid>
<Piece NumberOfCells="0" NumberOfPoints="16">
<Points>
<DataArray NumberOfComponents="3" format="ascii" type="Float32">1.4008657626710004 6.4721213332632219 2 8.4025934164146978 1.4008657626710004 2 18.079797843362424 1.4008657626710004 2 40.170878373109375 1.4008657626710004 2 50.472475487272916 6.3454973528053076 2 62.90910329028074 1.4008657626710004 2 67.979237959354847 9.0610846023134552 2 83.785477059688418 1.4008657626710004 2 1.4008657626710004 1.4008657626710004 2 10.94842766332135 3.5611893473068172 2 19.720332507062992 7.9886452757425452 2 39.13961598680428 3.3421934909972042 2 48.07737132122611 6.028725016141065 2 64.872572368629321 1.4008657626710004 2 66.955265427576421 6.8535515203509192 2 84.314864409890646 5.679338563821017 2 </DataArray>
</Points>
<Cells>
<DataArray Name="connectivity" format="ascii" type="Int32">0</DataArray>
<DataArray Name="offsets" format="ascii" type="Int32">0</DataArray>
<DataArray Name="types" format="ascii" type="UInt8">1</DataArray>
</Cells>
<PointData>
<DataArray Name="Points" NumberOfComponents="3" format="ascii" type="Float32">1.4008657626710004 6.4721213332632219 2 8.4025934164146978 1.4008657626710004 2 18.079797843362424 1.4008657626710004 2 40.170878373109375 1.4008657626710004 2 50.472475487272916 6.3454973528053076 2 62.90910329028074 1.4008657626710004 2 67.979237959354847 9.0610846023134552 2 83.785477059688418 1.4008657626710004 2 1.4008657626710004 1.4008657626710004 2 10.94842766332135 3.5611893473068172 2 19.720332507062992 7.9886452757425452 2 39.13961598680428 3.3421934909972042 2 48.07737132122611 6.028725016141065 2 64.872572368629321 1.4008657626710004 2 66.955265427576421 6.8535515203509192 2 84.314864409890646 5.679338563821017 2 </DataArray>
<DataArray Name="forces" NumberOfComponents="3" format="ascii" type="Float32">-0.10098011181697826 0.12225762111934399 0.0 -0.20928694604006443 -0.59484669482383312 0.0 -0.009551279229387144 -0.43043439455073973 0.0 -0.085801652742676482 -0.70671505246234434 0.0 -0.022783254469151137 0.14250532802600799 0.0 -0.01821172741366095 -0.79076540599999512 0.0 0.020772287495455677 0.27364677311437802 0.0 0.01147561579456513 -0.28251006375476373 0.0 -0.43215154499791453 -0.25807214357049069 0.0 -0.021749398393639874 0.02944237055898527 0.0 -0.027593161855010595 0.27353075824604001 0.0 0.016376669937563832 0.057109490074526759 0.0 -0.0010247008487945242 0.10184648747745673 0.0 -0.013207915575928264 -0.69849538223553853 0.0 0.053389616547574459 0.19216056445781216 0.0 -0.027163262261875903 0.01480821654455311 0.0 </DataArray>
<DataArray Name="radii" format="ascii" type="Float32">1.4008657626710004 1.4008657626710004 1.4008657626710004 1.4008657626710004 1.4008657626710004 1.4008657626710004 1.4008657626710004 1.4008657626710004 1.4008657626710004 1.4008657626710004 1.4008657626710004 1.4008657626710004 1.4008657626710004 1.4008657626710004 1.4008657626710004 1.4008657626710004 </DataArray>
</PointData>
<CellData/>
</Piece>
</UnstructuredGrid>
</VTKFile>
