<?xml version="1.0" ?>
<VTKFile byte_order="LittleEndian" type="UnstructuredGrid" version="0.1">
<UnstructuredGrid>
<Piece NumberOfCells="0" NumberOfPoints="16">
<Points>
<DataArray NumberOfComponents="3" format="ascii" type="Float32">1.4508657626710004 7.1112066960957421 2 8.0714163288039558 1.4508657626710004 2 17.962883670203002 1.4508657626710004 2 39.961523204887826 1.4508657626710004 2 50.417716721344647 6.7974843520656352 2 62.801158906026323 1.4508657626710004 2 67.974322879452416 9.946995047118687 2 83.793970691456224 1.4508657626710004 2 1.4508657626710004 1.4508657626710004 2 10.925166553354693 3.6506819799128403 2 19.605046535584687 9.3256083319724787 2 39.177554349588419 3.4787046863409254 2 48.120232721930996 6.4217971321225367 2 64.649770398264195 1.4508657626710004 2 66.929415733310137 7.5632773305491874 2 84.301087129445008 5.7247568897720287 2 </DataArray>
</Points>
<Cells>
<DataArray Name="connectivity" format="ascii" type="Int32">0</DataArray>
<DataArray Name="offsets" format="ascii" type="Int32">0</DataArray>
<DataArray Name="types" format="ascii" type="UInt8">1</DataArray>
</Cells>
<PointData>
<DataArray Name="Points" NumberOfComponents="3" format="ascii" type="Float32">1.4508657626710004 7.1112066960957421 2 8.0714163288039558 1.4508657626710004 2 17.962883670203002 1.4508657626710004 2 39.961523204887826 1.4508657626710004 2 50.417716721344647 6.7974843520656352 2 62.801158906026323 1.4508657626710004 2 67.974322879452416 9.946995047118687 2 83.793970691456224 1.4508657626710004 2 1.4508657626710004 1.4508657626710004 2 10.925166553354693 3.6506819799128403 2 19.605046535584687 9.3256083319724787 2 39.177554349588419 3.4787046863409254 2 48.120232721930996 6.4217971321225367 2 64.649770398264195 1.4508657626710004 2 66.929415733310137 7.5632773305491874 2 84.301087129445008 5.7247568897720287 2 </DataArray>
<DataArray Name="forces" NumberOfComponents="3" format="ascii" type="Float32">-0.21014819588920569 0.16418738071503913 0.0 -0.0608626294714254 -0.49250489513916795 0.0 -0.035380768963472142 -0.68334611167802717 0.0 -0.043583717587753701 -0.82987388134009699 0.0 0.019840910281515356 0.14782268470965892 0.0 -0.033889667672592133 -1.0219316754760877 0.0 0.020242198299319614 0.24859362850099909 0.0 -0.023100057977801569 -0.64941793765786837 0.0 -0.71069503286778635 -0.41811027297189607 0.0 -0.014500444424526582 0.015317678421183367 0.0 -0.018841173195720873 0.33509251751699809 0.0 -0.021010078411770827 0.069219175172313463 0.0 0.0093596737724378591 0.18789995356336431 0.0 -0.026473999798357628 -0.85150089682403673 0.0 0.00078972878521321732 0.22929122164392246 0.0 -0.0053619983414049804 0.068439181987573067 0.0 </DataArray>
<DataArray Name="radii" format="ascii" type="Float32">1.4508657626710004 1.4508657626710004 1.4508657626710004 1.4508657626710004 1.4508657626710004 1.4508657626710004 1.4508657626710004 1.4508657626710004 1.4508657626710004 1.4508657626710004 1.4508657626710004 1.4508657626710004 1.4508657626710004 1.4508657626710004 1.4508657626710004 1.4508657626710004 </DataArray>
</PointData>
<CellData/>
</Piece>
</UnstructuredGrid>
</VTKFile>
