<?xml version="1.0" ?>
<VTKFile byte_order="LittleEndian" type="UnstructuredGrid" version="0.1">
<UnstructuredGrid>
<Piece NumberOfCells="0" NumberOfPoints="8">
<Points>
<DataArray NumberOfComponents="3" format="ascii" type="Float32">1.9300000000000002 1.1500000000000001 2 9.9299999999999997 1.1500000000000001 2 18.222477633996057 1.1500000000000001 2 39.692522366003949 1.1500000000000001 2 50.723688098122629 1.1500000000000001 2 65.930000000000007 1.1500000000000001 2 69.002159568290537 1.1500000000000001 2 82.274507111972341 1.1500000000000001 2 </DataArray>
</Points>
<Cells>
<DataArray Name="connectivity" format="ascii" type="Int32">0</DataArray>
<DataArray Name="offsets" format="ascii" type="Int32">0</DataArray>
<DataArray Name="types" format="ascii" type="UInt8">1</DataArray>
</Cells>
<PointData>
<DataArray Name="Points" NumberOfComponents="3" format="ascii" type="Float32">1.9300000000000002 1.1500000000000001 2 9.9299999999999997 1.1500000000000001 2 18.222477633996057 1.1500000000000001 2 39.692522366003949 1.1500000000000001 2 50.723688098122629 1.1500000000000001 2 65.930000000000007 1.1500000000000001 2 69.002159568290537 1.1500000000000001 2 82.274507111972341 1.1500000000000001 2 </DataArray>
<DataArray Name="forces" NumberOfComponents="3" format="ascii" type="Float32">0.0 0.0 0.0 0.0 0.0 0.0 0.0 0.0 0.0 0.0 0.0 0.0 -0.0052489411355303561 -0.0018906166503580841 0.0 0.0 0.0 0.0 -0.0016174607182026482 -0.00014479969105429558 0.0 0.0016174742552454685 -0.00014480090371509906 0.0 </DataArray>
<DataArray Name="radii" format="ascii" type="Float32">1.1500000000000001 1.1500000000000001 1.1500000000000001 1.1500000000000001 1.1500000000000001 1.1500000000000001 1.1500000000000001 1.1500000000000001 </DataArray>
</PointData>
<CellData/>
</Piece>
</UnstructuredGrid>
</VTKFile>
