<?xml version="1.0" ?>
<VTKFile byte_order="LittleEndian" type="UnstructuredGrid" version="0.1">
<UnstructuredGrid>
<Piece NumberOfCells="0" NumberOfPoints="137">
<Points>
<DataArray NumberOfComponents="3" format="ascii" type="Float32">0 0 0 6.7093451290426378 1.20512782846611 2 15.950833394790793 1.20512782846611 2 26.156837681059567 5.3240058448843479 2 32.604208461083324 1.20512782846611 2 37.052242209436685 8.5763768257318151 2 43.698908597676599 3.0545058863294989 2 44.450948839450021 7.7270822894659172 2 53.65126070409611 1.20512782846611 2 54.52105407062286 5.1627429861136349 2 61.413358419156665 5.9998712919698409 2 72.130497742719015 1.20512782846611 2 73.196764256449853 8.402921163749582 2 75.755245584530314 5.1283246678105678 2 79.681987408519944 7.1994007332911334 2 87.985683642163281 3.4339780954381753 2 91.800326804943779 7.761659989255147 2 95.021738359650641 5.0009523757730436 2 4.5203361152051214 1.20512782846611 2 13.947842776611044 1.20512782846611 2 23.706781418484354 1.9856175658945112 2 33.622909635504207 8.5129836565506825 2 37.121918047554452 1.20512782846611 2 41.713813878745761 6.4776227632087213 2 48.187650179548612 1.20512782846611 2 51.346913834641995 6.9867385379873221 2 58.133511055975241 7.5351868123595835 2 62.217315070881504 3.8425270716348829 2 70.80851885252325 8.572064026932221 2 72.676697722879311 4.6806741716224503 2 79.738632334864974 1.20512782846611 2 82.208841571388078 3.5379579394718879 2 84.650509891561441 7.3428689094695674 2 93.038096021163852 1.20512782846611 2 93.201890501168236 9.633986461983552 2 7.2753857817555811 6.1032535336660869 2 17.023414541050126 6.1714790823437431 2 25.58443307327714 2.5962338672467924 2 33.425679606035587 5.257292508588816 2 39.668467811182758 7.498398612713931 2 40.943762366953827 2.519965007379708 2 48.724371208762108 6.9454565301793965 2 52.020710226538753 2.7627557545801062 2 56.462281182804624 1.20512782846611 2 65.127251517611128 7.5095100845184799 2 67.014139218157894 2.3482035490319149 2 75.557361629245932 9.3676630398049596 2 77.742320552210558 8.3919690175954731 2 78.64350691119904 3.9781395289407215 2 85.405862792529774 1.20512782846611 2 89.534905202634079 7.5995680222105673 2 95.039186656980419 1.20512782846611 2 6.6878788888281093 3.6073972058426196 2 13.788828210247763 6.1511623680219225 2 21.449715527682656 3.365188661920016 2 35.267215945556444 4.7549759644792395 2 33.619025789851541 3.0715288225771928 2 45.108432581755842 1.20512782846611 2 45.543880285136275 4.0820082593933762 2 53.539374480970793 7.8369079718278574 2 57.806162319614067 3.1879731625937069 2 60.87223037889401 1.20512782846611 2 68.688365246905178 3.6226171976799164 2 72.771964966970629 2.812636573007786 2 76.128854870916015 1.20512782846611 2 81.680162264489169 1.20512782846611 2 86.144509395265032 5.5141538889820616 2 90.860800682706042 5.5769818788239931 2 94.909550815346904 8.0475658078823002 2 8.5284969370694874 2.3033866760586363 2 14.895622536988308 3.176438136965952 2 24.130278950499878 4.3034390018403661 2 30.699872429982165 1.20512782846611 2 37.67868886274686 6.3947395853874474 2 42.691655859521838 1.20512782846611 2 42.33461548178029 8.7177532526457693 2 55.07215361929098 2.9676320447671216 2 56.69688207150363 5.0332304009069091 2 62.744732000439754 7.9687781552071035 2 70.284827371429685 1.20512782846611 2 73.83500755508102 6.2807896995233161 2 74.654515145164027 3.3744548168762791 2 81.152007288281624 8.9157805591482795 2 89.976539934713969 3.4218689724242726 2 93.57009826585606 6.584554081713371 2 92.886463090021834 4.7154542271209552 2 2.9855919560008206 2.753857532514993 2 12.177641906847796 1.835548343774942 2 21.841758663492019 1.20512782846611 2 35.347219678563398 6.9465609511288644 2 35.860763977515731 2.8002238887055593 2 43.821781311427728 5.4682843382060984 2 49.279689521572223 2.9755015596502128 2 52.457486085017614 4.9187325335571233 2 56.572786946823712 9.3402163946069177 2 64.175532064346413 3.1065217224739774 2 71.386850681981969 6.3688593376033156 2 70.763760590471122 3.5090379306342765 2 78.034748868093786 1.6266766381174029 2 80.604224553051338 5.2260031992252394 2 82.803759688324831 5.8866205001952574 2 94.325759338481944 3.0408318010916768 2 95.495794149206191 10.282482923494429 2 8.8636764256050871 4.5315005518948821 2 16.862331684536812 3.817773068782929 2 26.814059645314902 1.20512782846611 2 31.670416319852205 3.9558997761670374 2 39.715581665180018 5.1184212661565134 2 41.88275599049976 4.3049957386008906 2 46.784692894935908 8.3754084084961367 2 50.518792495605965 1.20512782846611 2 58.724562360792419 1.20512782846611 2 64.035795409333446 5.4144180370044328 2 68.415637205894043 1.20512782846611 2 74.210518515793225 11.218197667842205 2 75.824958831669903 7.2174310985042505 2 77.798006306000943 5.9879476294775351 2 87.276112629657931 1.20512782846611 2 90.607444807211266 9.7870719701603086 2 96.689581914367679 1.9334612752177907 2 4.5476222485190512 4.4310278814493529 2 13.022464856770254 4.0059826003687835 2 19.630711815938088 2.2131207121317327 2 37.260429573517207 4.4065324212572614 2 34.747032038729685 1.20512782846611 2 46.896834338546697 2.6322893668852232 2 46.113023695916027 6.1856500231951266 2 55.776981065438264 7.1329069384513586 2 58.993574242592445 5.3620522995633371 2 60.081377244320429 3.3474965024873971 2 69.233053831368736 5.8433545852916495 2 74.212460286233835 1.20512782846611 2 76.741006367407067 3.2914575343267618 2 80.338260260610255 3.0186968076940919 2 86.026618276688254 3.2104511625895693 2 91.987086051279817 3.055068276793675 2 96.72774160247323 6.1843288054588985 2 </DataArray>
</Points>
<Cells>
<DataArray Name="connectivity" format="ascii" type="Int32">0</DataArray>
<DataArray Name="offsets" format="ascii" type="Int32">0</DataArray>
<DataArray Name="types" format="ascii" type="UInt8">1</DataArray>
</Cells>
<PointData>
<DataArray Name="Points" NumberOfComponents="3" format="ascii" type="Float32">0 0 0 6.7093451290426378 1.20512782846611 2 15.950833394790793 1.20512782846611 2 26.156837681059567 5.3240058448843479 2 32.604208461083324 1.20512782846611 2 37.052242209436685 8.5763768257318151 2 43.698908597676599 3.0545058863294989 2 44.450948839450021 7.7270822894659172 2 53.65126070409611 1.20512782846611 2 54.52105407062286 5.1627429861136349 2 61.413358419156665 5.9998712919698409 2 72.130497742719015 1.20512782846611 2 73.196764256449853 8.402921163749582 2 75.755245584530314 5.1283246678105678 2 79.681987408519944 7.1994007332911334 2 87.985683642163281 3.4339780954381753 2 91.800326804943779 7.761659989255147 2 95.021738359650641 5.0009523757730436 2 4.5203361152051214 1.20512782846611 2 13.947842776611044 1.20512782846611 2 23.706781418484354 1.9856175658945112 2 33.622909635504207 8.5129836565506825 2 37.121918047554452 1.20512782846611 2 41.713813878745761 6.4776227632087213 2 48.187650179548612 1.20512782846611 2 51.346913834641995 6.9867385379873221 2 58.133511055975241 7.5351868123595835 2 62.217315070881504 3.8425270716348829 2 70.80851885252325 8.572064026932221 2 72.676697722879311 4.6806741716224503 2 79.738632334864974 1.20512782846611 2 82.208841571388078 3.5379579394718879 2 84.650509891561441 7.3428689094695674 2 93.038096021163852 1.20512782846611 2 93.201890501168236 9.633986461983552 2 7.2753857817555811 6.1032535336660869 2 17.023414541050126 6.1714790823437431 2 25.58443307327714 2.5962338672467924 2 33.425679606035587 5.257292508588816 2 39.668467811182758 7.498398612713931 2 40.943762366953827 2.519965007379708 2 48.724371208762108 6.9454565301793965 2 52.020710226538753 2.7627557545801062 2 56.462281182804624 1.20512782846611 2 65.127251517611128 7.5095100845184799 2 67.014139218157894 2.3482035490319149 2 75.557361629245932 9.3676630398049596 2 77.742320552210558 8.3919690175954731 2 78.64350691119904 3.9781395289407215 2 85.405862792529774 1.20512782846611 2 89.534905202634079 7.5995680222105673 2 95.039186656980419 1.20512782846611 2 6.6878788888281093 3.6073972058426196 2 13.788828210247763 6.1511623680219225 2 21.449715527682656 3.365188661920016 2 35.267215945556444 4.7549759644792395 2 33.619025789851541 3.0715288225771928 2 45.108432581755842 1.20512782846611 2 45.543880285136275 4.0820082593933762 2 53.539374480970793 7.8369079718278574 2 57.806162319614067 3.1879731625937069 2 60.87223037889401 1.20512782846611 2 68.688365246905178 3.6226171976799164 2 72.771964966970629 2.812636573007786 2 76.128854870916015 1.20512782846611 2 81.680162264489169 1.20512782846611 2 86.144509395265032 5.5141538889820616 2 90.860800682706042 5.5769818788239931 2 94.909550815346904 8.0475658078823002 2 8.5284969370694874 2.3033866760586363 2 14.895622536988308 3.176438136965952 2 24.130278950499878 4.3034390018403661 2 30.699872429982165 1.20512782846611 2 37.67868886274686 6.3947395853874474 2 42.691655859521838 1.20512782846611 2 42.33461548178029 8.7177532526457693 2 55.07215361929098 2.9676320447671216 2 56.69688207150363 5.0332304009069091 2 62.744732000439754 7.9687781552071035 2 70.284827371429685 1.20512782846611 2 73.83500755508102 6.2807896995233161 2 74.654515145164027 3.3744548168762791 2 81.152007288281624 8.9157805591482795 2 89.976539934713969 3.4218689724242726 2 93.57009826585606 6.584554081713371 2 92.886463090021834 4.7154542271209552 2 2.9855919560008206 2.753857532514993 2 12.177641906847796 1.835548343774942 2 21.841758663492019 1.20512782846611 2 35.347219678563398 6.9465609511288644 2 35.860763977515731 2.8002238887055593 2 43.821781311427728 5.4682843382060984 2 49.279689521572223 2.9755015596502128 2 52.457486085017614 4.9187325335571233 2 56.572786946823712 9.3402163946069177 2 64.175532064346413 3.1065217224739774 2 71.386850681981969 6.3688593376033156 2 70.763760590471122 3.5090379306342765 2 78.034748868093786 1.6266766381174029 2 80.604224553051338 5.2260031992252394 2 82.803759688324831 5.8866205001952574 2 94.325759338481944 3.0408318010916768 2 95.495794149206191 10.282482923494429 2 8.8636764256050871 4.5315005518948821 2 16.862331684536812 3.817773068782929 2 26.814059645314902 1.20512782846611 2 31.670416319852205 3.9558997761670374 2 39.715581665180018 5.1184212661565134 2 41.88275599049976 4.3049957386008906 2 46.784692894935908 8.3754084084961367 2 50.518792495605965 1.20512782846611 2 58.724562360792419 1.20512782846611 2 64.035795409333446 5.4144180370044328 2 68.415637205894043 1.20512782846611 2 74.210518515793225 11.218197667842205 2 75.824958831669903 7.2174310985042505 2 77.798006306000943 5.9879476294775351 2 87.276112629657931 1.20512782846611 2 90.607444807211266 9.7870719701603086 2 96.689581914367679 1.9334612752177907 2 4.5476222485190512 4.4310278814493529 2 13.022464856770254 4.0059826003687835 2 19.630711815938088 2.2131207121317327 2 37.260429573517207 4.4065324212572614 2 34.747032038729685 1.20512782846611 2 46.896834338546697 2.6322893668852232 2 46.113023695916027 6.1856500231951266 2 55.776981065438264 7.1329069384513586 2 58.993574242592445 5.3620522995633371 2 60.081377244320429 3.3474965024873971 2 69.233053831368736 5.8433545852916495 2 74.212460286233835 1.20512782846611 2 76.741006367407067 3.2914575343267618 2 80.338260260610255 3.0186968076940919 2 86.026618276688254 3.2104511625895693 2 91.987086051279817 3.055068276793675 2 96.72774160247323 6.1843288054588985 2 </DataArray>
<DataArray Name="forces" NumberOfComponents="3" format="ascii" type="Float32">0 0 0 -0.027578676686112968 -0.16470241432030081 0.0 -0.013773536162268105 -0.17814673770467016 0.0 -0.098643945115096623 0.039530847476710304 0.0 0.11125035074643519 -0.26407511051409988 0.0 0.0008052473634682783 0.17360032235111772 0.0 0.0058523290505766712 0.077401120011886565 0.0 -0.016669850166034436 0.13239654988756033 0.0 0.017169179203621057 -0.24111336779990453 0.0 0.030897668199522485 0.15083565947909672 0.0 -0.058582046124457166 0.075474189050847337 0.0 -0.012859571650625512 -0.63626811984234932 0.0 -0.039997976848841543 0.1891334059047326 0.0 -0.016521912432908209 0.093945912358859573 0.0 0.062487308620582938 0.12278633677761412 0.0 0.054555193862880047 0.13829295332837799 0.0 -0.10297988283225371 0.097244790957240423 0.0 -0.019232943412842096 0.13816448510573606 0.0 -0.062900391728259092 -0.16412030998180649 0.0 -0.0028556755691966362 -0.39578131176958808 0.0 -0.065450796415175316 -0.033199145460034885 0.0 -0.021265821876550767 0.10279485064456514 0.0 0.044492174354039182 -0.34366505739239078 0.0 0.0045696354637543429 0.13137254436801171 0.0 0.075351297394762595 -0.65388124669050729 0.0 -0.035923321213610124 0.13403766362740605 0.0 -0.0072710615953482834 0.049611304052450372 0.0 -0.054604204952742597 0.056226108448766104 0.0 -0.050192103657547005 0.13168450452591948 0.0 0.00064881173112327217 0.06879866340976204 0.0 0.01599385520515012 -0.64058775118073497 0.0 0.063980192225726096 -0.007066069975950301 0.0 0.014322855189276527 0.078854293479564519 0.0 0.015962343203318241 -0.39083800215489506 0.0 -0.038200858076965882 0.1114846609373437 0.0 -0.12556103815690467 0.12559586761100236 0.0 0.0050126502223996755 0.060859383505876004 0.0 -0.024699583121972402 0.35222426297760506 0.0 -0.04479976025355778 0.20005999314244266 0.0 0.00057412151277934961 0.15424717331833632 0.0 0.075283883667628032 0.046020191910260688 0.0 0.039561831174941726 0.089246672672325153 0.0 0.012069889948810697 0.082614795974706889 0.0 -0.051288724317906945 -0.13742240475957732 0.0 -0.06844207281465374 0.11875567511647278 0.0 -0.12636335527524328 0.059211964890825974 0.0 0.023425838576057692 0.15240648452219407 0.0 0.041153256039441671 0.16066414440612772 0.0 -0.026197756601805733 0.092386056636052011 0.0 -0.030332666301188277 -0.32776602462219268 0.0 -0.14948044503773886 -0.0093241305439601234 0.0 0.0067072330119045676 -0.67849876504843243 0.0 -0.05946287127427359 0.039215000149279255 0.0 0.045178776182688014 0.13038251426920158 0.0 0.18525075844166877 0.41202605785772861 0.0 0.025076485843355811 0.10510959658568832 0.0 0.095324343108289245 0.10920617950088785 0.0 -0.044929284429299443 -0.15071660590492553 0.0 0.030906701253037613 0.1045312397324196 0.0 -0.010405441189135466 0.041068849315327116 0.0 -0.084377835785549693 -0.019514513868444872 0.0 -0.0026545252454241997 -0.12268252383402373 0.0 -0.12423852718334241 0.080867546675646537 0.0 -0.046769648101692957 0.063363262554686606 0.0 -0.02270736776599741 -0.33141305931971288 0.0 -0.021015731172311536 -0.1694171420621613 0.0 0.039427554858014198 0.071770256508118802 0.0 -0.19330223067165814 0.13496722384353338 0.0 -0.041007557551054175 0.10741281949169923 0.0 -0.030063769606729119 0.13163954941768383 0.0 0.020634590197920966 0.11413014691895815 0.0 -0.22140045704340694 0.1312541917966516 0.0 0.04483816152926054 -0.2637140678574097 0.0 0.0094437375287768494 0.17135686330464892 0.0 0.024161429234830473 -0.40604537324303303 0.0 -0.048671999918328691 0.10845065854314587 0.0 0.034362322827956204 0.10868864399350225 0.0 0.061404058996784111 0.082264356516868406 0.0 0.028439384339689604 0.027760859553019854 0.0 -0.032535182089622805 -0.060284584759059422 0.0 -0.028264937302377474 0.16866135128701537 0.0 0.0021538935886619703 0.02040357974340079 0.0 0.10018854164526689 0.11765410625155645 0.0 0.037084301169950873 0.039215711949471495 0.0 -0.087737916325355075 0.11708444868689133 0.0 -0.083938466723653127 0.10472519902255334 0.0 -0.0086195977364891541 0.087359767016968792 0.0 -0.010454616712465815 0.092639679239569561 0.0 -0.33538240614641007 -0.43846046460796279 0.0 0.019370562970088961 0.13097533150168258 0.0 0.10666576775796588 0.10021729289993281 0.0 0.014078743704938668 0.10082760197082889 0.0 0.025653812339177538 0.083226711806418552 0.0 -0.007562840138252501 0.11291803800998276 0.0 -0.017511274350145843 0.069166699417435459 0.0 0.010500673843689714 0.085183471384624426 0.0 0.048010181949791592 0.14624492079345675 0.0 -0.072561741330700286 0.042471529780332161 0.0 0.0001377272941004426 0.017318557872646662 0.0 0.030714116146842191 0.050224007342712929 0.0 0.013448360282095881 0.059752451158153475 0.0 0.035886265427056252 0.083241257008642516 0.0 -0.021559455017485577 0.1106928325369165 0.0 -0.076774967563477722 0.16149031898539476 0.0 0.16341362406618914 -0.0012153735917614789 0.0 -0.14216401770573456 -0.44307990687402421 0.0 0.022204334116370517 -0.050670881202253978 0.0 -0.0091242982232967451 0.13460058206065201 0.0 -0.0044660297410196448 0.1319700705651444 0.0 0.029869877295397099 0.11530615233902385 0.0 0.049994130209613491 -0.39575068414815462 0.0 -0.01766380603198825 -0.20486224568891859 0.0 -0.088073232107705401 0.10435060568744621 0.0 -0.070974380003151205 -0.38948475398372401 0.0 -0.072240524326001351 0.10124874407931217 0.0 0.022079897428656889 0.13222130011828578 0.0 0.0208934206492013 0.14982706241661728 0.0 -0.0096624774612869176 -0.13184905005350467 0.0 -0.020668881075294306 0.034829024036283435 0.0 0.12351772739299871 -0.050272438451716334 0.0 -0.026115743828605084 0.13032185945622063 0.0 -0.066555334093629931 0.13958748174289148 0.0 0.21425094306791417 0.062015941493978009 0.0 0.10397078611215121 0.14994633752277375 0.0 0.086195842176545689 -0.60334688181955431 0.0 0.0021732393079596651 -0.0035269982972550859 0.0 -0.0058002549165538236 0.13918816022756658 0.0 0.01282153308364116 0.086136321703147584 0.0 0.056236027973431094 0.046429979847631572 0.0 -0.069749517884605317 -0.030305857786597792 0.0 0.036664592029665904 0.058383649353796328 0.0 -0.038705676791038451 -0.3895803449587224 0.0 -0.0042005813169069539 0.03247369442296269 0.0 -0.0084059144873610825 0.066042661670869363 0.0 0.045437244178012162 0.023640322678904341 0.0 0.047388323206777022 0.0063954395589656821 0.0 0.044765437465769824 0.085636593562257779 0.0 </DataArray>
<DataArray Name="radii" format="ascii" type="Float32">0 1.20512782846611 1.20512782846611 1.20512782846611 1.20512782846611 1.20512782846611 1.20512782846611 1.20512782846611 1.20512782846611 1.20512782846611 1.20512782846611 1.20512782846611 1.20512782846611 1.20512782846611 1.20512782846611 1.20512782846611 1.20512782846611 1.20512782846611 1.20512782846611 1.20512782846611 1.20512782846611 1.20512782846611 1.20512782846611 1.20512782846611 1.20512782846611 1.20512782846611 1.20512782846611 1.20512782846611 1.20512782846611 1.20512782846611 1.20512782846611 1.20512782846611 1.20512782846611 1.20512782846611 1.20512782846611 1.20512782846611 1.20512782846611 1.20512782846611 1.20512782846611 1.20512782846611 1.20512782846611 1.20512782846611 1.20512782846611 1.20512782846611 1.20512782846611 1.20512782846611 1.20512782846611 1.20512782846611 1.20512782846611 1.20512782846611 1.20512782846611 1.20512782846611 1.20512782846611 1.20512782846611 1.20512782846611 1.20512782846611 1.20512782846611 1.20512782846611 1.20512782846611 1.20512782846611 1.20512782846611 1.20512782846611 1.20512782846611 1.20512782846611 1.20512782846611 1.20512782846611 1.20512782846611 1.20512782846611 1.20512782846611 1.20512782846611 1.20512782846611 1.20512782846611 1.20512782846611 1.20512782846611 1.20512782846611 1.20512782846611 1.20512782846611 1.20512782846611 1.20512782846611 1.20512782846611 1.20512782846611 1.20512782846611 1.20512782846611 1.20512782846611 1.20512782846611 1.20512782846611 1.20512782846611 1.20512782846611 1.20512782846611 1.20512782846611 1.20512782846611 1.20512782846611 1.20512782846611 1.20512782846611 1.20512782846611 1.20512782846611 1.20512782846611 1.20512782846611 1.20512782846611 1.20512782846611 1.20512782846611 1.20512782846611 1.20512782846611 1.20512782846611 1.20512782846611 1.20512782846611 1.20512782846611 1.20512782846611 1.20512782846611 1.20512782846611 1.20512782846611 1.20512782846611 1.20512782846611 1.20512782846611 1.20512782846611 1.20512782846611 1.20512782846611 1.20512782846611 1.20512782846611 1.20512782846611 1.20512782846611 1.20512782846611 1.20512782846611 1.20512782846611 1.20512782846611 1.20512782846611 1.20512782846611 1.20512782846611 1.20512782846611 1.20512782846611 1.20512782846611 1.20512782846611 1.20512782846611 1.20512782846611 1.20512782846611 1.20512782846611 1.20512782846611 </DataArray>
</PointData>
<CellData/>
</Piece>
</UnstructuredGrid>
</VTKFile>
