<?xml version="1.0" ?>
<VTKFile byte_order="LittleEndian" type="UnstructuredGrid" version="0.1">
<UnstructuredGrid>
<Piece NumberOfCells="0" NumberOfPoints="36">
<Points>
<DataArray NumberOfComponents="3" format="ascii" type="Float32">0 0 0 34.474282221625593 10.776239627391789 2 39.34034093490564 7.0820478487204159 2 81.426867185438638 1 2 37.700789211436778 10.020666928348458 2 81.687567114719329 13.499718617186979 2 32.662463729445392 10.703229478670403 2 38.575859940869123 5.050330222853642 2 81.11845210722349 11.888106980428557 2 34.513591149552319 4.3301204557414081 2 80.420140420896686 1 2 33.549996740932755 12.405025140964005 2 35.882928708254518 8.891375477903054 2 37.723932454546301 12.512696843799219 2 80.341374391439643 6.4796792033844293 2 41.202320913435514 1 2 34.871573130584267 1.2 2 39.513489367109621 1.4 2 82.326204115648977 7.2522049231316652 2 36.288231101369426 7.0581868730945674 2 79.013464148124314 14.89069237353322 2 36.062053829799169 3.0232508994097693 2 80.955494550661754 4.4368851477618483 2 32.87264874242171 15.539112370584739 2 35.893716026709505 5.1809882084416659 2 80.061129298540422 11.02978279161233 2 38.579530573293482 3.1912635936442864 2 38.845008362492315 15.848048160603486 2 36.292970559550632 1 2 81.101054541476955 2.5235735193001645 2 32.253592590033207 13.562166709863673 2 80.161394098657851 3.1116166207176015 2 37.018568869087837 14.608284823749059 2 37.393371544484204 4.2900794472358932 2 81.052235670630608 8.2099849495222443 2 38.966552119716653 18.119662272174036 2 </DataArray>
</Points>
<Cells>
<DataArray Name="connectivity" format="ascii" type="Int32">0</DataArray>
<DataArray Name="offsets" format="ascii" type="Int32">0</DataArray>
<DataArray Name="types" format="ascii" type="UInt8">1</DataArray>
</Cells>
<PointData>
<DataArray Name="Points" NumberOfComponents="3" format="ascii" type="Float32">0 0 0 34.474282221625593 10.776239627391789 2 39.34034093490564 7.0820478487204159 2 81.426867185438638 1 2 37.700789211436778 10.020666928348458 2 81.687567114719329 13.499718617186979 2 32.662463729445392 10.703229478670403 2 38.575859940869123 5.050330222853642 2 81.11845210722349 11.888106980428557 2 34.513591149552319 4.3301204557414081 2 80.420140420896686 1 2 33.549996740932755 12.405025140964005 2 35.882928708254518 8.891375477903054 2 37.723932454546301 12.512696843799219 2 80.341374391439643 6.4796792033844293 2 41.202320913435514 1 2 34.871573130584267 1.2 2 39.513489367109621 1.4 2 82.326204115648977 7.2522049231316652 2 36.288231101369426 7.0581868730945674 2 79.013464148124314 14.89069237353322 2 36.062053829799169 3.0232508994097693 2 80.955494550661754 4.4368851477618483 2 32.87264874242171 15.539112370584739 2 35.893716026709505 5.1809882084416659 2 80.061129298540422 11.02978279161233 2 38.579530573293482 3.1912635936442864 2 38.845008362492315 15.848048160603486 2 36.292970559550632 1 2 81.101054541476955 2.5235735193001645 2 32.253592590033207 13.562166709863673 2 80.161394098657851 3.1116166207176015 2 37.018568869087837 14.608284823749059 2 37.393371544484204 4.2900794472358932 2 81.052235670630608 8.2099849495222443 2 38.966552119716653 18.119662272174036 2 </DataArray>
<DataArray Name="forces" NumberOfComponents="3" format="ascii" type="Float32">0 0 0 0.02936627239115186 0.13958490338535084 0.0 -0.089002498243565431 0.085159028769499684 0.0 0.027379812297771533 -0.78219861185105843 0.0 -0.014407930973714289 0.12801962646821202 0.0 -0.016500878863144691 0.20647303394437849 0.0 0.068716199639258568 0.087641441411405327 0.0 -0.06834704293652899 0.027731437950955784 0.0 0.010468671073927738 0.18532126055107245 0.0 0.071967441906758314 0.01837423450713771 0.0 -0.040782275644117738 -0.5832186490329635 0.0 0.033028710794121341 0.14562808647303416 0.0 0.031813986918424311 0.12916462375651883 0.0 -0.07849779264761092 0.11613254234724663 0.0 0.015673377888463957 0.042529303893311915 0.0 -0.10776338581765735 -1.0578847082111236 0.0 0.036609159757214321 -0.82477598159088494 0.0 -0.052929511033114274 -0.99766032638415303 0.0 -0.0034263173015309789 0.093722004140958548 0.0 -0.019484970998760121 0.037603342373963566 0.0 -0.032380715732751086 0.23815358046216595 0.0 0.03854686669926366 0.017393673217422467 0.0 -0.021835492620354335 0.00050407858424167395 0.0 0.042048050094845968 0.30619124003046211 0.0 0.049316618145114739 0.013824684960702365 0.0 0.042008869637988 0.14759921296920103 0.0 -0.035007814394605097 -0.0085490746020651931 0.0 -0.024359697106874773 0.23173661555995428 0.0 0.0010535327493204072 -0.61456941307334301 0.0 -0.014918296829347699 -0.1634606039167589 0.0 0.10778840931886154 0.30974346314482515 0.0 0.13695163621398876 0.014060521707115414 0.0 -0.061800014110186333 0.18287454753760934 0.0 0.02211590264023832 0.021728925826271839 0.0 0.0053362963924389328 0.075504722096243149 0.0 -0.048244986945797944 0.24704407158202574 0.0 </DataArray>
<DataArray Name="radii" format="ascii" type="Float32">0 1.2 1.4 1 1.2 1.2 1.2 1 1 1 1 1 1.2 1.4 1.4 1 1.2 1.4 1.4 1 1 1.2 1.2 1.4 1.4 1 1 1.2 1 1 1 1 1 1 1.2 1.2 </DataArray>
</PointData>
<CellData/>
</Piece>
</UnstructuredGrid>
</VTKFile>
