<?xml version="1.0" ?>
<VTKFile byte_order="LittleEndian" type="UnstructuredGrid" version="0.1">
<UnstructuredGrid>
<Piece NumberOfCells="0" NumberOfPoints="626">
<Points>
<DataArray NumberOfComponents="3" format="ascii" type="Float32">24.982747754479416 9.1466994537547528 2 40.363680100515701 18.81414870018007 2 52.300009577432775 17.747712694562498 2 74.900999360126121 20.055405453670303 2 75.189675380105086 9.4991464816920637 2 48.505165380431414 6.9904847608739686 2 57.508613144096174 14.291667812717767 2 74.3636437675964 14.226214767676773 2 86.645890173415381 15.851865626395091 2 26.89503562354232 6.6626471079465768 2 43.684572824311267 4.6257908736364834 2 52.285950635678979 7.3105681929392299 2 65.832776273554231 14.226530921673969 2 79.979940794140575 14.442425874524366 2 44.68853405225947 1.8346862805591122 2 60.498668641589724 15.066326857539917 2 73.967003246366502 1 2 83.865780234936224 1 2 21.514494082864129 6.1615107865323191 2 42.256267434156236 21.669955784149554 2 53.531354549865732 8.474503360950969 2 69.660502729313862 18.128661071058524 2 81.701687801893158 9.0999508579896329 2 30.36879852699478 15.532583909279113 2 50.828034197302102 3.0192437319357932 2 55.469109708881653 16.98746155096682 2 71.116519399728304 6.0730334336182361 2 88.073440768125252 5.9706837802023287 2 30.3920499062096 4.6410115432431143 2 38.729018732742396 7.9712090470345425 2 57.335330220741554 1.161466356746129 2 70.66591917856239 10.327918242526913 2 88.438531621723172 16.962355936092735 2 12.242525747705812 13.007455225155686 2 45.146529495426215 10.608734895204842 2 57.791751804670824 8.0109615191913459 2 76.12718100796981 1.5153752866305294 2 83.77792654157453 4.0276520364246293 2 22.884525442945456 11.643750330082282 2 42.244872272826427 12.868667317509237 2 50.049866402703373 10.706332520797849 2 77.390779326129191 13.472083733820782 2 76.711863116096197 6.2414360814929495 2 6.3210459502153427 6.5779835547431107 2 20.009116221166018 10.37406260546862 2 50.111420134761595 1.9051427451676541 2 61.362945825609721 21.792013197542651 2 73.549672296115205 2.9895925457596686 2 87.438678275478708 9.053010223403982 2 32.240019476316782 16.125128017170812 2 41.938373964617149 9.7496828870263084 2 53.256605840899077 1 2 64.014237318939678 20.840819980738818 2 84.42275079890851 14.743302778706518 2 43.733591250174868 6.4376667275863451 2 59.98171159527886 9.71333353866771 2 71.640595752138921 3.4490878066044117 2 82.117293477425292 3.5415204427559472 2 23.414186669088803 2.2070965509430458 2 47.963198242358388 20.081597546657328 2 52.8029786484311 14.506758088559305 2 72.141483443225582 21.881649972043117 2 78.715650007631524 12.062936591690178 2 1.1056688388488622 5.1244422112984198 2 21.288354317814971 12.99036831191154 2 49.413027362435066 9.3469319488188791 2 49.658586908790788 20.277655784807436 2 68.979391099158562 3.2667922671188503 2 89.004440114536635 1.7865441135839453 2 27.568953130529561 2.7894637845819652 2 37.503367223957923 17.563877136904825 2 54.400574071618564 1 2 67.756709749425994 8.8140187342523753 2 80.837061087590143 21.984192455697428 2 45.221582972725152 12.618301177649794 2 55.690937240974705 11.537453551492808 2 79.282840654496297 7.2865023286205224 2 86.271721561874472 5.9678986876725579 2 20.15060729001997 8.6455441454368014 2 44.220700364433789 15.700271480586233 2 48.058044231978961 16.373674883432315 2 77.401764617814322 20.256477683451628 2 73.840605375625799 10.387018809053233 2 15.596224261981119 7.5428590831514599 2 47.615636741277697 2.8455308442249754 2 56.869838315055603 15.667451577292237 2 71.120588983353755 13.045061138307284 2 88.697750654944429 13.00988417364545 2 24.43428852142744 5.5203892957674263 2 41.592019434596267 2.3962078833382132 2 55.969280022849837 6.7213955874525642 2 66.380980707449964 15.614939066257776 2 78.852183317899019 19.145716286599207 2 46.692233536103778 2.4050219450575354 2 58.985219523917536 15.516986236105804 2 75.182427262569803 3.3180246798568853 2 86.572484085418381 1 2 45.260200573904861 17.338409807469336 2 51.829296712024558 8.288218335719213 2 68.703704610801367 13.078426129947236 2 83.052479933302166 8.8503767785395908 2 5.2500324331457255 1.1919669209347405 2 25.00238634943646 14.918048649108623 2 51.385024780055531 6.5070708617927542 2 54.682308555629263 21.615665576309301 2 69.47141224231305 8.2813727317179016 2 86.384601637918351 4.5532505255079485 2 30.173417569560588 1.4105329280109218 2 40.262867915696972 11.233605850623114 2 57.669834213163817 4.5963179178181237 2 72.951986139676535 8.4834803560136507 2 86.801282051843927 19.68061629769668 2 15.667487430331308 11.471161864300299 2 45.626150649902627 7.5742755589525022 2 60.346071876178826 7.1397543661678027 2 77.278415302280379 4.7342946188794395 2 82.068858630932667 6.1109365227019943 2 41.774958507801031 14.013273019843755 2 51.077519120776444 15.278030685176214 2 77.443142394576583 12.004401474779652 2 79.75685315421633 5.9184259086503852 2 6.8396583847923571 3.7123492285977426 2 18.834206639001383 13.414128053298409 2 48.428840210626475 1.5898133909576235 2 58.058672801234685 20.392730966196549 2 74.737966374426946 6.3614330757300612 2 90.426381633313994 10.813519093105356 2 28.220448737218689 13.144288896515405 2 40.2350161827543 6.5420948585713479 2 52.594204591921851 3.6132958692599377 2 67.312494139845001 22.013664740199715 2 81.648863027903914 11.982589005144673 2 7.789115813576851 8.8192624186280373 2 45.96504016058929 4.8078604996382541 2 57.124895346803953 9.0934199998899228 2 70.024980069187009 1 2 79.143725815093717 1 2 19.989021904341897 3.4191771329816212 2 46.849248946260737 15.097329388790939 2 52.615246519223092 12.375772512260534 2 73.197381180863516 17.71279315607369 2 78.147805041667041 8.8235372185417482 2 1.847301882305814 9.2238456140422418 2 24.006135328632006 13.322809395333996 2 46.951734229080337 10.553337456481074 2 52.233799027366771 22.843750062654905 2 68.092377706686378 1 2 87.633385889942218 3.7089033125137383 2 24.616258894343932 1.1766969584250502 2 38.178395564049417 14.182527893042529 2 54.191694639743361 3.4597834606309319 2 66.889386897222494 10.919801803757734 2 80.47793737502812 19.016313996984355 2 47.639086118246446 13.860397922863417 2 56.039896938664455 8.1054682497220725 2 81.429663431663911 5.3433831582587983 2 84.407827574148968 12.727312975873133 2 26.030767383031193 10.592692409541845 2 38.288166939971873 19.608508616363352 2 53.897108141174613 17.85751817175365 2 75.9230020966925 18.43499210533151 2 75.630663099024076 8.305635422023812 2 47.5357374345528 6.3084038640859106 2 57.73464445046379 11.612715814527583 2 74.380930189568431 16.627859021859489 2 85.947630781055594 14.43324508076596 2 26.391743538648669 8.7610510575028311 2 43.778176448977938 2.9066150383611045 2 54.491408727551097 6.9383645921865238 2 64.387086508894257 14.82574791030617 2 80.97834484663349 16.174205950877869 2 43.184060456496418 1.1257466986454752 2 58.789495066493267 13.267852213385734 2 72.840453324552271 1 2 85.386600512987513 1 2 24.374069654589007 7.2578878009852366 2 45.094997324717696 22.436241620809263 2 53.424888907455781 10.72022841572111 2 70.174415167765247 15.343190345731546 2 79.342855897077385 9.5630209738705751 2 26.981658161423709 16.996891775777613 2 50.195295364835495 6.0322709480026075 2 54.317777829041489 19.871825920626346 2 72.880932102880237 6.50135956945633 2 87.301356087160798 7.0588311568915598 2 31.410255785229594 2.9961098399699981 2 39.682648991645962 8.8844648462517259 2 56.642509624610391 2.5236267408619311 2 70.30078211754028 9.0994954739187097 2 89.95074423978518 19.92327454026109 2 11.833285240719277 9.0645626775756991 2 44.006915911600487 8.6480111910186626 2 58.621406761513342 6.1771358491595842 2 77.886781004982865 2.0728252677161008 2 83.351986909081461 5.6592933124551053 2 21.642120705582819 7.9496555567540987 2 43.225967490289626 10.451907985414906 2 48.159082005640961 12.182729406729438 2 75.801742148903372 14.39775363988365 2 76.654214241819304 7.5862106140902101 2 17.913420195143299 7.8332952553942405 2 49.659357731625441 3.1277990382101168 2 59.343094412884582 19.184580003013274 2 75.426125271802007 5.0338487220399832 2 85.770975054096908 9.4294776988828826 2 29.928604893892672 13.758601998852024 2 41.327913751886115 8.1141900816523922 2 51.852022230084941 1 2 67.672229804118885 18.518055839164294 2 82.542610116422793 15.180542842510608 2 43.080773134877965 7.5322319663925104 2 60.694187746086172 10.814284492511812 2 72.357022384036924 4.6938956892475669 2 82.883989802864647 1 2 21.642160388860972 2.5341857518504654 2 45.712659201661879 20.650919572242977 2 54.631196125435856 13.377896939213764 2 71.108347913181035 19.72000782398943 2 80.250345182862247 11.528084535908967 2 4.401442491993393 6.2427787934969761 2 21.928083194691929 17.024973854987419 2 47.653695361384777 9.2772367437261245 2 52.740494603244358 19.303387896665317 2 70.742535303673307 4.1003274372628606 2 90.626334350213796 1 2 29.649185195130798 3.5869291369388225 2 35.98644557057527 18.477171299649534 2 55.54146111212841 1 2 68.138198313852641 11.01022502325001 2 84.061328145572531 20.414959649418591 2 43.783723172612966 13.175716996958107 2 57.115824660301932 12.758413634256623 2 80.488029516595759 6.7257711083795639 2 84.555787071905797 8.4701269475751086 2 18.808942090678716 5.1818133194519094 2 42.72996862885045 16.242283275273785 2 49.43013307739777 18.440089233850223 2 75.060924713619642 22.963340779142726 2 72.1631851810954 12.374848833255164 2 17.189899558315535 10.500496527387732 2 48.674400236779228 4.6657768706283855 2 55.578788314494993 15.360833119930916 2 73.400491551539901 15.277321776203324 2 86.806395951700878 12.459829885463897 2 24.743399474603819 3.1102478568833436 2 41.426843800292822 1 2 55.95392367352386 4.2839167987584794 2 67.829089373393373 15.478745483655203 2 77.967339634697893 16.507709023770765 2 45.555257442343823 1 2 61.266074288952176 16.480511085373841 2 75.137726561196629 1 2 87.833098867810492 1 2 42.9890265596214
[...]
<PointData>
<DataArray Name="Points" NumberOfComponents="3" format="ascii" type="Float32">24.982747754479416 9.1466994537547528 2 40.363680100515701 18.81414870018007 2 52.300009577432775 17.747712694562498 2 74.900999360126121 20.055405453670303 2 75.189675380105086 9.4991464816920637 2 48.505165380431414 6.9904847608739686 2 57.508613144096174 14.291667812717767 2 74.3636437675964 14.226214767676773 2 86.645890173415381 15.851865626395091 2 26.89503562354232 6.6626471079465768 2 43.684572824311267 4.6257908736364834 2 52.285950635678979 7.3105681929392299 2 65.832776273554231 14.226530921673969 2 79.979940794140575 14.442425874524366 2 44.68853405225947 1.8346862805591122 2 60.498668641589724 15.066326857539917 2 73.967003246366502 1 2 83.865780234936224 1 2 21.514494082864129 6.1615107865323191 2 42.256267434156236 21.669955784149554 2 53.531354549865732 8.474503360950969 2 69.660502729313862 18.128661071058524 2 81.701687801893158 9.0999508579896329 2 30.36879852699478 15.532583909279113 2 50.828034197302102 3.0192437319357932 2 55.469109708881653 16.98746155096682 2 71.116519399728304 6.0730334336182361 2 88.073440768125252 5.9706837802023287 2 30.3920499062096 4.6410115432431143 2 38.729018732742396 7.9712090470345425 2 57.335330220741554 1.161466356746129 2 70.66591917856239 10.327918242526913 2 88.438531621723172 16.962355936092735 2 12.242525747705812 13.007455225155686 2 45.146529495426215 10.608734895204842 2 57.791751804670824 8.0109615191913459 2 76.12718100796981 1.5153752866305294 2 83.77792654157453 4.0276520364246293 2 22.884525442945456 11.643750330082282 2 42.244872272826427 12.868667317509237 2 50.049866402703373 10.706332520797849 2 77.390779326129191 13.472083733820782 2 76.711863116096197 6.2414360814929495 2 6.3210459502153427 6.5779835547431107 2 20.009116221166018 10.37406260546862 2 50.111420134761595 1.9051427451676541 2 61.362945825609721 21.792013197542651 2 73.549672296115205 2.9895925457596686 2 87.438678275478708 9.053010223403982 2 32.240019476316782 16.125128017170812 2 41.938373964617149 9.7496828870263084 2 53.256605840899077 1 2 64.014237318939678 20.840819980738818 2 84.42275079890851 14.743302778706518 2 43.733591250174868 6.4376667275863451 2 59.98171159527886 9.71333353866771 2 71.640595752138921 3.4490878066044117 2 82.117293477425292 3.5415204427559472 2 23.414186669088803 2.2070965509430458 2 47.963198242358388 20.081597546657328 2 52.8029786484311 14.506758088559305 2 72.141483443225582 21.881649972043117 2 78.715650007631524 12.062936591690178 2 1.1056688388488622 5.1244422112984198 2 21.288354317814971 12.99036831191154 2 49.413027362435066 9.3469319488188791 2 49.658586908790788 20.277655784807436 2 68.979391099158562 3.2667922671188503 2 89.004440114536635 1.7865441135839453 2 27.568953130529561 2.7894637845819652 2 37.503367223957923 17.563877136904825 2 54.400574071618564 1 2 67.756709749425994 8.8140187342523753 2 80.837061087590143 21.984192455697428 2 45.221582972725152 12.618301177649794 2 55.690937240974705 11.537453551492808 2 79.282840654496297 7.2865023286205224 2 86.271721561874472 5.9678986876725579 2 20.15060729001997 8.6455441454368014 2 44.220700364433789 15.700271480586233 2 48.058044231978961 16.373674883432315 2 77.401764617814322 20.256477683451628 2 73.840605375625799 10.387018809053233 2 15.596224261981119 7.5428590831514599 2 47.615636741277697 2.8455308442249754 2 56.869838315055603 15.667451577292237 2 71.120588983353755 13.045061138307284 2 88.697750654944429 13.00988417364545 2 24.43428852142744 5.5203892957674263 2 41.592019434596267 2.3962078833382132 2 55.969280022849837 6.7213955874525642 2 66.380980707449964 15.614939066257776 2 78.852183317899019 19.145716286599207 2 46.692233536103778 2.4050219450575354 2 58.985219523917536 15.516986236105804 2 75.182427262569803 3.3180246798568853 2 86.572484085418381 1 2 45.260200573904861 17.338409807469336 2 51.829296712024558 8.288218335719213 2 68.703704610801367 13.078426129947236 2 83.052479933302166 8.8503767785395908 2 5.2500324331457255 1.1919669209347405 2 25.00238634943646 14.918048649108623 2 51.385024780055531 6.5070708617927542 2 54.682308555629263 21.615665576309301 2 69.47141224231305 8.2813727317179016 2 86.384601637918351 4.5532505255079485 2 30.173417569560588 1.4105329280109218 2 40.262867915696972 11.233605850623114 2 57.669834213163817 4.5963179178181237 2 72.951986139676535 8.4834803560136507 2 86.801282051843927 19.68061629769668 2 15.667487430331308 11.471161864300299 2 45.626150649902627 7.5742755589525022 2 60.346071876178826 7.1397543661678027 2 77.278415302280379 4.7342946188794395 2 82.068858630932667 6.1109365227019943 2 41.774958507801031 14.013273019843755 2 51.077519120776444 15.278030685176214 2 77.443142394576583 12.004401474779652 2 79.75685315421633 5.9184259086503852 2 6.8396583847923571 3.7123492285977426 2 18.834206639001383 13.414128053298409 2 48.428840210626475 1.5898133909576235 2 58.058672801234685 20.392730966196549 2 74.737966374426946 6.3614330757300612 2 90.426381633313994 10.813519093105356 2 28.220448737218689 13.144288896515405 2 40.2350161827543 6.5420948585713479 2 52.594204591921851 3.6132958692599377 2 67.312494139845001 22.013664740199715 2 81.648863027903914 11.982589005144673 2 7.789115813576851 8.8192624186280373 2 45.96504016058929 4.8078604996382541 2 57.124895346803953 9.0934199998899228 2 70.024980069187009 1 2 79.143725815093717 1 2 19.989021904341897 3.4191771329816212 2 46.849248946260737 15.097329388790939 2 52.615246519223092 12.375772512260534 2 73.197381180863516 17.71279315607369 2 78.147805041667041 8.8235372185417482 2 1.847301882305814 9.2238456140422418 2 24.006135328632006 13.322809395333996 2 46.951734229080337 10.553337456481074 2 52.233799027366771 22.843750062654905 2 68.092377706686378 1 2 87.633385889942218 3.7089033125137383 2 24.616258894343932 1.1766969584250502 2 38.178395564049417 14.182527893042529 2 54.191694639743361 3.4597834606309319 2 66.889386897222494 10.919801803757734 2 80.47793737502812 19.016313996984355 2 47.639086118246446 13.860397922863417 2 56.039896938664455 8.1054682497220725 2 81.429663431663911 5.3433831582587983 2 84.407827574148968 12.727312975873133 2 26.030767383031193 10.592692409541845 2 38.288166939971873 19.608508616363352 2 53.897108141174613 17.85751817175365 2 75.9230020966925 18.43499210533151 2 75.630663099024076 8.305635422023812 2 47.5357374345528 6.3084038640859106 2 57.73464445046379 11.612715814527583 2 74.380930189568431 16.627859021859489 2 85.947630781055594 14.43324508076596 2 26.391743538648669 8.7610510575028311 2 43.778176448977938 2.9066150383611045 2 54.491408727551097 6.9383645921865238 2 64.387086508894257 14.82574791030617 2 80.97834484663349 16.174205950877869 2 43.184060456496418 1.1257466986454752 2 58.789495066493267 13.267852213385734 2 72.840453324552271 1 2 85.386600512987513 1 2 24.374069654589007 7.2578878009852366 2 45.094997324717696 22.436241620809263 2 53.424888907455781 10.72022841572111 2 70.174415167765247 15.343190345731546 2 79.342855897077385 9.5630209738705751 2 26.981658161423709 16.996891775777613 2 50.195295364835495 6.0322709480026075 2 54.317777829041489 19.871825920626346 2 72.880932102880237 6.50135956945633 2 87.301356087160798 7.0588311568915598 2 31.410255785229594 2.9961098399699981 2 39.682648991645962 8.8844648462517259 2 56.642509624610391 2.5236267408619311 2 70.30078211754028 9.0994954739187097 2 89.95074423978518 19.92327454026109 2 11.833285240719277 9.0645626775756991 2 44.006915911600487 8.6480111910186626 2 58.621406761513342 6.1771358491595842 2 77.886781004982865 2.0728252677161008 2 83.351986909081461 5.6592933124551053 2 21.642120705582819 7.9496555567540987 2 43.225967490289626 10.451907985414906 2 48.159082005640961 12.182729406729438 2 75.801742148903372 14.39775363988365 2 76.654214241819304 7.5862106140902101 2 17.913420195143299 7.8332952553942405 2 49.659357731625441 3.1277990382101168 2 59.343094412884582 19.184580003013274 2 75.426125271802007 5.0338487220399832 2 85.770975054096908 9.4294776988828826 2 29.928604893892672 13.758601998852024 2 41.327913751886115 8.1141900816523922 2 51.852022230084941 1 2 67.672229804118885 18.518055839164294 2 82.542610116422793 15.180542842510608 2 43.080773134877965 7.5322319663925104 2 60.694187746086172 10.814284492511812 2 72.357022384036924 4.6938956892475669 2 82.883989802864647 1 2 21.642160388860972 2.5341857518504654 2 45.712659201661879 20.650919572242977 2 54.631196125435856 13.377896939213764 2 71.108347913181035 19.72000782398943 2 80.250345182862247 11.528084535908967 2 4.401442491993393 6.2427787934969761 2 21.928083194691929 17.024973854987419 2 47.653695361384777 9.2772367437261245 2 52.740494603244358 19.303387896665317 2 70.742535303673307 4.1003274372628606 2 90.626334350213796 1 2 29.649185195130798 3.5869291369388225 2 35.98644557057527 18.477171299649534 2 55.54146111212841 1 2 68.138198313852641 11.01022502325001 2 84.061328145572531 20.414959649418591 2 43.783723172612966 13.175716996958107 2 57.115824660301932 12.758413634256623 2 80.488029516595759 6.7257711083795639 2 84.555787071905797 8.4701269475751086 2 18.808942090678716 5.1818133194519094 2 42.72996862885045 16.242283275273785 2 49.43013307739777 18.440089233850223 2 75.060924713619642 22.963340779142726 2 72.1631851810954 12.374848833255164 2 17.189899558315535 10.500496527387732 2 48.674400236779228 4.6657768706283855 2 55.578788314494993 15.360833119930916 2 73.400491551539901 15.277321776203324 2 86.806395951700878 12.459829885463897 2 24.743399474603819 3.1102478568833436 2 41.426843800292822 1 2 55.95392367352386 4.2839167987584794 2 67.829089373393373 15.478745483655203 2 77.967339634697893 16.507709023770765 2 45.555257442343823 1 2 61.266074288952176 16.480511085373841 2 75.137726561196629 1 2 87.833098867810492 1 2 42.989026559621436 18.722968853611864 2 51.476741883564827 9.9914875465138646 2 69.426912462196654 11.006490243607939 2 84.199023196385042 11.161476111452824 2 1.5476199238127675 1 2 23.938020784550318 18.593598844650376 2 49.798314216217641 7.3707448414676895 2 57.61723155416432 22.184053093814047 2 71.146859852833273 7.2820977309273482 2 85.274535127078764 3.3171298620038518 2 28.693237019336209 2.2403245918399821 2 39.215386654827952 13.143825523040572 2 57.23146477007041 5.5058313221528463 2 72.409911035552781 10.323062329294089 2 83.932475269167853 18.015541866329215 2 15.468935114849947 14.812124211502002 2 47.401219224663237 8.1599555367086669 2 59.60791444474841 8.5159773631756543 2 76.845422101105569 3.1231327940091735 2 83.318096620580121 6.9162609312288374 2 40.049427887697334 16.574818524952526 2 50.066829297074825 12.744657299304249 2 75.871608347567474 13.157353739843272 2 78.978365722427839 3.6474898750444691 2 2.7606868954245876 4.0117330547844858 2 18.291792503836319 16.773774018979477 2 47.61942174413393 1 2 58.745702405388762 17.741523400771712 2 73.823265173763247 7.4894625731587245 2 88.377057219305769 10.028837690694905 2 27.383725790648516 9.7311848563582473 2 38.972328529383795 5.39699569176988 2 53.065874492263006 5.9418907528545803 2 69.261801532119307 19.797317856217177 2 81.920462005163273 13.40934260535427 2 6.0369265191921171 12.441806323184213 2 44.77441291603872 3.4493712832656995 2 56.874714217086968 10.925550151275258 2 70.945386509442258 1.3449529619516505 2 80.884815205017205 1 2 23.231597398184263 3.685037510425198 2 46.712071067125983 17.070295876697354 2 51.401622904064311 12.744330078696784 2 70.867132395756869 16.760248082026479 2 76.945518302209834 10.392804567710652 2 4.2057771377981368 9.8730971131900045 2 26.50120830024515 13.789895610400231 2 46.213107331119978 9.3802376942499546 2 48.456774032936401 21.9682703532924 2 69.047762747575959 1 2 88.647815650852479 4.2640829382384817 2 27.510806859373648 1 2 37.289186350745908 12.900128281112661 2 54.853792244088176 4.9426739698883795 2 67.439098753959044 14.08799436846852 2 82.454556351175299 17.346596439825987 2 48.676145027479514 15.067865738567694 2 55.176365323000162 9.1543493301502235 2 80.739042874748876 3.5040960875314107 2 85.699703457968354 11.450984048890547 2 23.880051737676883 10.284709590240961 2 41.604004162938153 17.478611641523894 2 50.695665008810941 17.518508320280734 2 73.009940905803816 19.796328513049886 2 75.771788584910681 10.483008352839885 2 49.036065875037018 5.7965114263100785 2 58.945869571570476 14.34518079561512 2 73.638082243301412 12.929952382511534 2 86.716423507746811 17.62678097296013 2 27.537656947761946 8.0510733330829165 2 43.051073705386159 5.6908952262610839 2 53.3179071144137 7.049376188449334 2 66.835982947214802 13.059345301623736 2 79.013312729597388 13.156936443868416 2 44.117704565860159 1 2 60.513059900144796 13.784849917071798 2 74.495503128767297 2.1789578426761156 2 83.083107754091657 2.5148061713592114 2 23.055922935973783 5.2498943021384692 2 43.726658981360941 20.430138092322981 2 52.51049548455574 9.2885173291692524 2 69.151111687265811 16.53331725354937 2 79.646121535308055 8.3514905010944176 2 28.571277806079319 14.983093325434909 2 51.556805513172606 3.7759238577724936 2 56.855093261528474 17.474619560865879 2 70.655987181068497 5.0218656491873848 2 87.410639769721186 5.1603519511053193 2 31.175805880998748 5.7279704785032353 2 39.985634054355081 7.7165581175704103 2 56.436594118675082 1 2 71.271368664467374 11.29324525971572 2 90.011239271401877 18.090688937530796 2 12.213914007059154 11.008554376656871 2 44.295418036714139 9.8967529955116511 2 56.974406558281188 7.3057206399558794 2 76.847434360168734 1 2 82.662583364181927 4.484115230019599 2 21.865579535130891 9.7858087857662088 2 42.166218928026495 11.797941536873449 2 51.039651419533669 11.440846264989773 2 78.461294376326435 14.642265721744323 2 75.710336600486471 6.4192621313785843 2 8.2826475748423363 6.8172250231814289 2 21.138490420814815 11.428113539331914 2 50.703085367704411 1 2 59.469150430985685 21.44870225098575 2 73.767576659633875 4.7769146921342056 2 86.843044503385556 10.524880335297091 2 31.814886910025582 14.442852559467237 2 41.650870977588582 10.857415868267999 2 51.694181696847288 2.2229415119305518 2 64.133673467780383 19.10969178681265 2 83.515484069366792 16.189089401609188 2 44.842027263306726 5.9792794162029965 2 58.699018073846261 10.639151353137354 2 71.728453214285381 2.4738486933074229 2 81.741135781746465 2.3183908262092592 2 22.73596008836876 1 2 46.606565937696324 18.962956327868621 2 52.944518259794279 16.034915185610394 2 70.251925323980331 21.406156767020576 2 78.893232541420019 10.912415594468319 2 2.5471744148145348 6.4167390388408085 2 22.390458741226023 14.193091828206864 2 48.845405162153924 8.3444799270919638 2 50.871859296743807 21.543782838807346 2 68.896047312537206 4.2638392526141393 2 89.379510855759904 1 2 26.830946887520216 4.1069558113360776 2 39.026832743127052 17.847003789695549 2 54.673918487956023 2.0650392732760023 2 68.419818139287997 7.965777529493888 2 80.672649073547404 23.734781518550083 2 45.7158010752484 11.512217330318583 2 54.167538506724306 11.745367636733235 2 78.245527019485735 6.5979531174499817 2 84.475287783339567 5.4816826083848671 2 19.783450860849594 6.89226274723835 2 45.115183368772151 14.221151953121193 2 49.701170432690425 16.376576951530502 2 79.189215449729247 20.929812896689885 2 74.735403727340383 11.259616282493962 2 15.558631345084684 9.501039844817825 2 47.604080627502604 4.1489103107979259 2 57.96787714770651 16.36653498092415 2 71.501645818315296 14.8708633453376 2 89.834207682296935 12.238343036888359 2 25.875935408422194 5.7686678075317941 2 42.84605596134643 2.4221226752209 2 56.149239734683825 5.5337807917382147 2 66.213764937294428 17.389770825389277 2 79.373269810484203 17.493618988198211 2 46.265311768011081 3.809570122044176 2 59.813731566041298 16.730871383276089 2 74.566123956131065 4.0661783094675572 2 86.628616500235879 2.1347171383177268 2 43.77402100680429 17.431539738015623 2 50.569127694859318 9.1627870348862341 2 70.096529824987016 13.703595434274291 2 83.527322540997176 9.8005674841852475 2 3.3107896232728939 1.5904838534432126 2 23.314215627001442 15.693018351020619 2 51.934978376909932 5.3939457790231335 2 54.046195308007576 23.399363472269837 2 70.01960800294782 7.2504082413173636 2 85.15437649958092 4.6156263766547898 2 30.304270032047015 2.7676173491310267 2 40.165976784123252 10.175267284880613 2 58.602830905876772 4.6718144553914556 2 71.217732582060236 8.5221935161319902 2 85.282282846200516 18.889646453104774 2 13.900126948378324 12.017350466937998 2 44.539910845653459 7.393040228837382 2 60.63114836993396 8.1426202970062729 2 78.0126711976976 5.7166713159801006 2 81.504796484574726 7.2725797519450248 2 40.506812077375045 13.840703673572701 2 51.633093865147984 16.283786656802928 2 76.289515448539419 11.88153832322217 2 79.685021350967347 4.7618059061346285 2 5.2175461810755124 4.6501410902821245 2 18.736877834677227 11.648794714692766 2 49.301910932361075 1 2 56.220997861042811 20.269226092334911 2 73.828194601859522 5.7843795780502392 2 90.870544665882576 9.8153806138158863 2 27.773967520383927 11.34485713568049 2 39.063037350382572 6.6375515882115526 2 53.495979616304865 2.7011791153967275 2 65.693816849439671 21.144270075204592 2 83.084968237520926 12.055195649771516 2 8.5416895181806058 10.660697994162328 2 47.271612672383725 5.3442217656790083 2 58.153447630735108 9.8316234240637677 2 70.157309221560411 2.2861220653588625 2 79.081280769079996 2.5710414622069955 2 19.374369013913832 1.8094160283704446 2 45.6593725714825 15.743150737308515 2 53.369244308749863 13.127202215001672 2 74.409539351243509 18.446124916624999 2 77.956131311017884 10.270772247822631 2 1 7.4675519302981046 2 24.791693785324139 11.783328124143413 2 47.103107873459109 11.858106562779012 2 50.459418101741939 23.543599580073266 2 67.158187714840039 1 2 86.283347714011512 3.0937886601118572 2 26.048797206003279 1 2 38.213832001868646 15.988180010684232 2 55.152984390332961 3.5992311730777375 2 66.443609912160554 11.971667256537849 2 81.057138331996413 20.413611306864876 2 46.515569508057936 13.25794297773046 2 54.782311058520961 8.0194898555536813 2 80.81075235458421 4.5561476097484803 2 83.277192887422203 13.696354539647315 2 26.504473231880411 12.264844369856966 2 39.624906977064903 21.065523839997251 2 54.201803964361893 16.191853102273122 2 77.533388430664488 18.307918180074317 2 74.768811329307709 7.8252700340112531 2 45.964773184233017 6.1116319427172501 2 59.670989206692553 11.085934796522272 2 75.413065697876164 15.735140589626571 2 85.497869125387766 13.179354854822636 2 25.65608545949781 7.4971775726399423 2 42.873104757461505 3.869710808077095 2 54.885579273500795 6.0613385188390385 2 65.050626425111645 15.93894340441496 2 79.413458627681038 15.888828743209034 2 42.30905468338252 1 2 58.786262444006944 12.25216506133399 2 72.909813991985203 2.1288807240255672 2 84.826797115664107 1.8064578093818542 2 22.976755697171715 6.8903670045784216 2 46.431364022754408 23.876208927867157 2 53.970927522013213 9.7475208917735685 2 68.934965787640593 14.62877179999991 2 80.347191109094183 10.090452827482293 2 27.393611445198928 18.754837134970998 2 50.836954072902117 4.808973325952155 2 55.500615075378931 18.658001428565004 2 72.079429974484611 5.5851962499234755 2 85.99975873626893 7.4859782853372607 2 31.48157465600692 4.2305183616102058 2 38.815263521309255 9.7701365870497536 2 57.546202793857127 2.9210840099462132 2 69.234790079993829 9.6554181646711577 2 88.322963218869717 18.786905656827265 2 13.746361738967842 8.9733624250411523 2 42.763204889911052 8.8815683998372741 2 58.859629029289792 7.4552548049298224 2 78.023928222421461 1 2 85.119520191790755 6.4894987186756437 2 23.300220462311596 8.6665461454174526 2 43.826524081513142 11.710738651378206 2 49.215320464942437 11.584710458483173 2 77.08023993259296 15.126743904459151 2 77.87500412072248 7.6939041995627733 2 17.301536643697634 6.1452017561178476 2 48.692297538368265 2.9419160040317145 2 60.66473127923404 20.02892341953707