<?xml version="1.0" ?>
<VTKFile byte_order="LittleEndian" type="UnstructuredGrid" version="0.1">
<UnstructuredGrid>
<Piece NumberOfCells="0" NumberOfPoints="18">
<Points>
<DataArray NumberOfComponents="3" format="ascii" type="Float32">0 0 0 5.9000000000000004 1.125 2 15.874688930396418 1.125 2 27.804678959997673 1.125 2 32.260886827590852 1.125 2 34.558090348062386 1.125 2 42.04130764024022 1.125 2 48.079999999999998 1.125 2 53.708274663280761 1.125 2 55.98215300047783 1.125 2 60.45903805010829 1.125 2 71.831792306175458 1.125 2 74.08219682973116 1.125 2 76.342280234589992 1.125 2 79.874688930396417 1.125 2 89.623376995050677 1.125 2 94.049935345145627 1.125 2 96.376623004949323 1.125 2 </DataArray>
</Points>
<Cells>
<DataArray Name="connectivity" format="ascii" type="Int32">0</DataArray>
<DataArray Name="offsets" format="ascii" type="Int32">0</DataArray>
<DataArray Name="types" format="ascii" type="UInt8">1</DataArray>
</Cells>
<PointData>
<DataArray Name="Points" NumberOfComponents="3" format="ascii" type="Float32">0 0 0 5.9000000000000004 1.125 2 15.874688930396418 1.125 2 27.804678959997673 1.125 2 32.260886827590852 1.125 2 34.558090348062386 1.125 2 42.04130764024022 1.125 2 48.079999999999998 1.125 2 53.708274663280761 1.125 2 55.98215300047783 1.125 2 60.45903805010829 1.125 2 71.831792306175458 1.125 2 74.08219682973116 1.125 2 76.342280234589992 1.125 2 79.874688930396417 1.125 2 89.623376995050677 1.125 2 94.049935345145627 1.125 2 96.376623004949323 1.125 2 </DataArray>
<DataArray Name="forces" NumberOfComponents="3" format="ascii" type="Float32">0 0 0 0.0 0.0 0.0 0.0 0.0 0.0 -0.097309894585400514 0.0 0.0 -0.04466832658938813 0.0 0.0 0.045004032602847133 0.0 0.0 0.0 0.0 0.0 0.0 0.0 0.0 -0.022738972931730092 6.089741758992651e-06 0.0 0.022768251778423121 0.0 0.0 0.01571193758733358 0.0 0.0 0.0 0.0 0.0 0.0 0.0 0.0 0.0 0.0 0.0 0.0 0.0 0.0 -0.073006874832898916 0.0 0.0 -0.072786336651049055 0.0 0.0 0.073006874832898916 0.0 0.0 </DataArray>
<DataArray Name="radii" format="ascii" type="Float32">0 1.125 1.125 1.125 1.125 1.125 1.125 1.125 1.125 1.125 1.125 1.125 1.125 1.125 1.125 1.125 1.125 1.125 </DataArray>
</PointData>
<CellData/>
</Piece>
</UnstructuredGrid>
</VTKFile>
