<?xml version="1.0" ?>
<VTKFile byte_order="LittleEndian" type="UnstructuredGrid" version="0.1">
<UnstructuredGrid>
<Piece NumberOfCells="0" NumberOfPoints="8">
<Points>
<DataArray NumberOfComponents="3" format="ascii" type="Float32">1.9300000000000002 1.2000000000000002 2 9.9299999999999997 1.2000000000000002 2 18.306640786499877 1.2000000000000002 2 39.608359213500123 1.2000000000000002 2 50.387460537683076 1.2000000000000002 2 65.930000000000007 1.2000000000000002 2 68.464625127016831 1.2000000000000002 2 82.812041539649883 1.2000000000000002 2 </DataArray>
</Points>
<Cells>
<DataArray Name="connectivity" format="ascii" type="Int32">0</DataArray>
<DataArray Name="offsets" format="ascii" type="Int32">0</DataArray>
<DataArray Name="types" format="ascii" type="UInt8">1</DataArray>
</Cells>
<PointData>
<DataArray Name="Points" NumberOfComponents="3" format="ascii" type="Float32">1.9300000000000002 1.2000000000000002 2 9.9299999999999997 1.2000000000000002 2 18.306640786499877 1.2000000000000002 2 39.608359213500123 1.2000000000000002 2 50.387460537683076 1.2000000000000002 2 65.930000000000007 1.2000000000000002 2 68.464625127016831 1.2000000000000002 2 82.812041539649883 1.2000000000000002 2 </DataArray>
<DataArray Name="forces" NumberOfComponents="3" format="ascii" type="Float32">0.0 0.0 0.0 0.0 0.0 0.0 0.0 0.0 0.0 0.0 0.0 0.0 -0.0017809918910166962 -0.0010848423655568243 0.0 0.0 0.0 0.0 -0.0036227103653765909 -0.00040558577399342515 0.0 0.0036227103653765909 -0.00040558577399342515 0.0 </DataArray>
<DataArray Name="radii" format="ascii" type="Float32">1.2000000000000002 1.2000000000000002 1.2000000000000002 1.2000000000000002 1.2000000000000002 1.2000000000000002 1.2000000000000002 1.2000000000000002 </DataArray>
</PointData>
<CellData/>
</Piece>
</UnstructuredGrid>
</VTKFile>
