<?xml version="1.0" ?>
<VTKFile byte_order="LittleEndian" type="UnstructuredGrid" version="0.1">
<UnstructuredGrid>
<Piece NumberOfCells="0" NumberOfPoints="16">
<Points>
<DataArray NumberOfComponents="3" format="ascii" type="Float32">1.3008657626710003 5.1367167155444999 2 9.7612451005540901 1.3008657626710003 2 18.477578284585885 1.3008657626710003 2 39.915480172251122 1.3008657626710003 2 50.139270973876428 5.6532992814204492 2 63.082737203641436 1.3008657626710003 2 67.353118919955037 7.2308409281574111 2 83.520181250725472 1.3008657626710003 2 1.3008657626710003 1.3008657626710003 2 10.543684313166255 3.8698011122680525 2 19.397062904098963 5.5432531337058846 2 38.884456160376011 3.3687299601724927 2 47.916366783489551 5.1382782105678864 2 65.292021686861844 1.3008657626710003 2 66.106852297220456 5.255720344851941 2 84.450635662081083 5.2214504508738422 2 </DataArray>
</Points>
<Cells>
<DataArray Name="connectivity" format="ascii" type="Int32">0</DataArray>
<DataArray Name="offsets" format="ascii" type="Int32">0</DataArray>
<DataArray Name="types" format="ascii" type="UInt8">1</DataArray>
</Cells>
<PointData>
<DataArray Name="Points" NumberOfComponents="3" format="ascii" type="Float32">1.3008657626710003 5.1367167155444999 2 9.7612451005540901 1.3008657626710003 2 18.477578284585885 1.3008657626710003 2 39.915480172251122 1.3008657626710003 2 50.139270973876428 5.6532992814204492 2 63.082737203641436 1.3008657626710003 2 67.353118919955037 7.2308409281574111 2 83.520181250725472 1.3008657626710003 2 1.3008657626710003 1.3008657626710003 2 10.543684313166255 3.8698011122680525 2 19.397062904098963 5.5432531337058846 2 38.884456160376011 3.3687299601724927 2 47.916366783489551 5.1382782105678864 2 65.292021686861844 1.3008657626710003 2 66.106852297220456 5.255720344851941 2 84.450635662081083 5.2214504508738422 2 </DataArray>
<DataArray Name="forces" NumberOfComponents="3" format="ascii" type="Float32">-0.12426544709689967 0.14401732744904142 0.0 -0.10410353281370674 -0.35465807127771887 0.0 0.12523491902908218 -0.42688242896524331 0.0 0.096092708759660389 -0.66365922553216317 0.0 -0.019340858982991926 0.14017129051123353 0.0 -0.0059240090664524625 -0.10937611748065229 0.0 0.10212288894181276 0.22975333878204177 0.0 -0.0020491339433620359 -0.14408027952673882 0.0 -0.059006360729818769 -0.073028985965003387 0.0 -0.030973855969897712 0.084955307472056832 0.0 0.0058016843700004171 0.15694362219381319 0.0 0.026656164615347089 0.058554512148005278 0.0 0.0018087587546669198 0.090013352234757316 0.0 -0.026467830191530178 -0.60291296418383045 0.0 0.034246471898817826 0.19085301445963038 0.0 -0.0016969766394809849 0.24587299762887274 0.0 </DataArray>
<DataArray Name="radii" format="ascii" type="Float32">1.3008657626710003 1.3008657626710003 1.3008657626710003 1.3008657626710003 1.3008657626710003 1.3008657626710003 1.3008657626710003 1.3008657626710003 1.3008657626710003 1.3008657626710003 1.3008657626710003 1.3008657626710003 1.3008657626710003 1.3008657626710003 1.3008657626710003 1.3008657626710003 </DataArray>
</PointData>
<CellData/>
</Piece>
</UnstructuredGrid>
</VTKFile>
