<?xml version="1.0" ?>
<VTKFile byte_order="LittleEndian" type="UnstructuredGrid" version="0.1">
<UnstructuredGrid>
<Piece NumberOfCells="0" NumberOfPoints="512">
<Points>
<DataArray NumberOfComponents="3" format="ascii" type="Float32">1 6.1842615027075905 2 9.6723227654707902 9.1511302974196234 2 17.897885620831971 6.4745957313286908 2 27.971740704741514 15.117388557222089 2 8.6003231326028491 7.0378162131912845 2 12.87436199142677 13.624180858448456 2 14.647655214378229 15.291852327026469 2 23.677103208049004 8.615053715797595 2 1 15.418935019980616 2 13.385344724453969 20.153134461346905 2 22.910670659603614 15.511842211048089 2 24.40077943583189 3.9065425224671406 2 4.3577660084711614 5.1470949955997929 2 11.323168389604909 12.651427009664079 2 17.778458614246709 10.053233912171411 2 25.945339834028392 14.384460235170575 2 3.7399532746848676 1 2 13.836805339611979 1 2 20.413631639702345 4.003472737541478 2 27.313450672339719 9.9059441092490719 2 9.0179980374704165 14.413877212416073 2 10.713199704074082 18.550612318830559 2 19.392779012180817 10.436572497754616 2 22.777512478054661 1.3526671552879141 2 4.599426594890808 16.116503938792576 2 15.207590123141838 7.0390619069718738 2 19.860333473606985 18.311653493872306 2 28.04045928191254 4.7755901723332705 2 7.0790834581773669 2.4384557966766454 2 11.361151767652462 1 2 18.679415915144528 1 2 23.226555583596468 21.489395390591501 2 1 10.665804565542075 2 9.0070382417550938 3.6762873765999884 2 19.69231322923639 2.0970969847536378 2 29.521442298782048 22.716198505792555 2 5.4624646664479624 9.7490026116578097 2 13.4392936244132 9.3194812527476358 2 18.364121626722227 12.940816281332005 2 23.664005078154698 10.041990829170246 2 3.8243907352665194 14.579052722791094 2 14.921630515282089 21.185030061765989 2 21.189464625274294 12.66072753766759 2 25.395164576566518 4.1632214446240194 2 4.0015174049902127 8.5644156300378746 2 8.8754287216949894 9.5601010608464954 2 16.146599626387431 8.7097467135362638 2 25.583834118139347 12.055884720948278 2 2.3638041594757762 3.9919986381495027 2 11.481739075992676 6.2093693310029954 2 21.047500741008726 8.4202943946964321 2 26.103635268595262 8.317612347117965 2 4.0318088818137143 20.759760360376667 2 7.284796180942279 21.776196799120676 2 19.072592925761416 17.017875015454809 2 22.254148213697288 5.7134709267238399 2 2.9336113467324023 16.435175058876354 2 14.848336823982741 11.086825423621947 2 21.346957509865913 22.09481146789205 2 26.754854463678114 1.8342894203679012 2 6.2907621572820354 3.1572362201171447 2 7.4622003973606956 3.5960975183451729 2 14.338267304553467 1.738104441273036 2 25.187821709769008 21.025011882069638 2 2.3881113732812187 5.8586136888686946 2 8.1472341871801923 11.235838775261088 2 17.442947236482038 4.0519298867630598 2 30.188378408351532 16.539598645153152 2 6.0603588520708502 4.8971151692689849 2 11.737482162017859 11.277244811944334 2 15.556138530179282 12.754302411982048 2 25.680141489448644 7.1265419068683773 2 1.67863917686443 13.053768316865707 2 13.624254747112158 14.936684784782175 2 24.226456348392496 15.031179775511266 2 25.846310235807767 1 2 3.3346356155039314 4.4088740144048089 2 10.580273196127568 14.91850226526892 2 19.377388624361529 7.7516378817290574 2 26.388430281425915 16.040241915780108 2 1.4666082628820711 1 2 12.917022323864186 2.8517201725648502 2 19.156644266872853 3.8892343920482242 2 28.517590310358937 12.18839956404709 2 7.3985683657657129 15.683698318968947 2 11.636900084925493 19.689832468852767 2 18.276412864689139 14.66721280490999 2 22.206335753747112 4.5814772959856942 2 5.2898222697451027 13.36617825609672 2 16.112948062235507 4.1003251617869303 2 20.458660246721774 15.636017514532989 2 28.150156315304034 3.8165709840597142 2 8.1756786503537349 1 2 10.944926428090531 4.5499515611191113 2 17.167482338978942 1 2 21.133052904262527 19.103997793945204 2 2.0672532168742555 7.7165524052263654 2 10.362378371470649 7.3932029180173897 2 20.264074386119926 1 2 27.840064086059289 22.574826035191418 2 6.8989961358079643 9.1980483925285359 2 12.639911405870745 8.8382203074885926 2 16.154904966303075 11.135010982873233 2 22.261681295490714 8.530167945012332 2 3.9251982052118608 12.706461097168493 2 14.53005324579339 23.146347179833811 2 23.233015175568575 13.120812985385363 2 24.052970022844111 5.3963616455379979 2 2.6870022311778596 9.4145912526293039 2 8.3385644470959992 12.057202337680806 2 16.189497641113338 6.5764055554255805 2 24.893027030882582 8.8780215504559141 2 1 1 2 13.563622090165758 6.2270637406427634 2 21.375907497892179 11.344128945746487 2 28.817219709069889 7.4678344728784847 2 5.652682939360238 20.506770014393183 2 9.5202214047706875 17.861424115462924 2 17.090827613612145 13.255271944998887 2 21.649322991364393 6.5048739064570089 2 1 20.610799482119376 2 14.022528457303117 12.575602625355158 2 19.898492022861536 20.362872415437501 2 27.81626641555318 2.0259428305776837 2 5.8360052238709494 6.7633574132547567 2 8.6323366787002414 1.8134931515659152 2 15.015772035959071 4.5732679966155274 2 26.483971817661132 18.406933831717094 2 1 5.3805897485069343 2 11.164341408587486 7.7339557404975903 2 17.695932560784811 7.8311541605595165 2 27.842389413723399 16.627516330089065 2 6.9408046286597465 6.4775530326858197 2 11.901325142845609 13.821118964694 2 15.371368131997354 18.445590200349603 2 23.796811263002919 6.5716158199921271 2 1 17.222683600740329 2 12.376162303233695 17.349469494934674 2 23.548555741424927 16.579933110209122 2 23.923798245172939 2.224904093028008 2 4.5529968308876825 4.0901042262547973 2 9.3854619619536983 12.705436545056736 2 18.530766627289054 8.4936691291438482 2 26.84972100577955 13.876272091925715 2 5.2551071398479845 1 2 12.996976355652111 1 2 20.53015036018753 5.0639999646852507 2 26.372739907831676 11.197197166545052 2 7.1034637388603645 13.915307670057308 2 11.808258585950149 16.254200826352147 2 20.986584779579161 10.243692145289664 2 23.138404720406456 2.5686720332829647 2 5.5360936051058713 15.072501511561564 2 14.834306197637696 5.3600989175962868 2 18.991434821292575 18.938025202522798 2 27.273060205471079 7.3170986296259679 2 6.7407953210097542 1 2 11.393124495163816 2.8100466884699205 2 16.713979289276242 2.3244639753058092 2 24.871251490060637 18.939258880711684 2 2.9178559140690963 10.264169061779453 2 8.3381511157991284 5.3581690493985175 2 19.456958702784231 1 2 30.083316566622759 19.732260540244638 2 5.9275975550389237 10.794250878239843 2 13.721584260791296 8.2473786884450213 2 20.52257600510681 11.243307819445148 2 23.632436840989872 11.692162217142737 2 1 14.130765091868815 2 16.335209287600858 19.847315779534561 2 20.532071259822338 13.379629641997724 2 26.720246651079826 5.5546046181534443 2 3.354831982184717 7.6644690330274248 2 8.7506201129836594 8.2353239425790914 2 16.806064918560892 9.403004063084655 2 25.120973594602191 10.894268561848925 2 1 2.8569132826790451 2 11.871860590445298 7.0136452583307491 2 19.729611667311783 8.587867698340494 2 27.808843740523987 9.1716232407424396 2 5.0760697025603587 22.225585489179064 2 7.972049491432557 20.276249214045112 2 18.044977984304406 17.826525193997064 2 23.056614527696624 5.139339581179188 2 4.2258742529594633 19.089714605157621 2 15.42875310371312 9.4083910274061751 2 18.856480811791467 23.578685771208459 2 26.471804095576033 2.7927943386342791 2 5.0387800795419668 3.2690628741193861 2 9.678122816998572 2.1386481528322618 2 14.041794800098918 3.0221394391916565 2 24.556490072958272 22.687923557125703 2 3.3365856597541508 6.4976869815081857 2 10.532476067966355 10.316361660904786 2 18.788594895144719 2.9278215440748712 2 29.208798261593017 17.80865510131644 2 7.4828446541668416 5.7094021871821408 2 11.510656841383113 9.972628739054084 2 14.827181636437636 13.872399993240975 2 25.179616213143859 7.9587314400064084 2 2.6777351021340166 12.41156965616495 2 14.06871163332853 17.433100964897182 2 25.043317266060519 13.430314569270481 2 24.706915723986597 1.9055993307717531 2 3.5955411927073273 3.5951790384483626 2 10.501334350275611 16.170795980733818 2 19.740275970820321 5.9425512739564166 2 25.288426044005934 17.308956906591643 2 3.0142274564416627 1 2 12.524393743858424 3.6646007921772044 2 18.180302730789467 4.6679383015419411 2 28.607448511367668 13.902480469132129 2 8.5094167728727204 15.843555772005457 2 9.3480968041804005 21.596147826390514 2 19.710242393354857 14.681155054712603 2 21.489249706092206 2.8153922187871974 2 5.6661086887682837 11.825267970082018 2 15.885617832079305 2.7823344892033499 2 21.704490374987905 17.178389059535636 2 26.520235522369916 3.769953896740498 2 7.8576539727933987 2.4601023136000562 2 11.731907969524412 5.2171929854836767 2 15.587318764497427 1.8671926535215286 2 22.879182491314932 18.610374887822285 2 1.7861536572591197 9.4194992297304463 2 9.7861773744171234 5.6891940824685401 2 22.093861899184951 1 2 28.611896570511554 24.314074444659159 2 7.4793884031973823 8.2130539622554419 2 12.654501384624414 10.887399492470266 2 17.438462508652453 12.120190376109059 2 22.244740067799913 7.4171695741786383 2 3.7411096789622338 10.966741313761407 2 12.205117845198567 22.213998226344639 2 21.472550234139238 14.10349811999758 2 25.178397139959642 5.1416127851202189 2 3.9095820281069553 9.4513870359105407 2 7.1316948269416933 11.038583256237899 2 16.266480693526201 5.3337931010664983 2 26.437640735106779 10.198664314339295 2 1 2.0664248689849969 2 13.267289282542666 4.1613177474511183 2 22.148166166777415 10.390329162431097 2 28.39746341269311 6.5808072926136143 2 5.3243878697667641 17.562409734416548 2 7.0968656870487568 17.690819828709486 2 16.922440729905368 15.029505524096523 2 20.290021463264591 7.526580400727048 2 2.3089779009699627 18.729937784537231 2 12.365724588176558 12.478655459459194 2 17.510673936338019 22.699878564883207 2 28.164493153068417 2.8764026508841143 2 6.0534718373796421 8.0282273892155906 2 9.8837177466979504 1 2 13.172683262800426 5.3883025803852176 2 27.714350488396555 19.398023713743569 2 1 7.8751193982451415 2 10.421342763440208 8.437298418713441 2 17.849206749806143 5.4608052376020906 2 27.119770884131199 15.117747556042717 2 8.8185993120729567 6.1355065604100369 2 13.850846572547741 13.690048990770361 2 15.903651431949877 15.705502811031545 2 24.050619012357828 7.8598897609219254 2 2.2233620832222503 14.929392618834413 2 13.670423002367896 18.52233503108668 2 21.892760244228032 15.982172232457486 2 23.606626733679207 3.3155583182260582 2 4.1343417965506584 7.071383283182417 2 10.617146086625986 13.273675105523063 2 17.719977458395594 11.153622386264548 2 25.425662808997608 15.316893556217915 2 3.841515819544199 2.7215393529537177 2 14.792796179496005 1 2 20.705738239631682 3.2393632421679164 2 28.200136416485933 10.339841509319816 2 8.0780787788481714 14.490517063149907 2 10.81646071115445 17.301202191799447 2 18.586753926405471 11.032410129773632 2 24.100123754473707 1 2 3.5677289088058153 15.534648800110663 2 15.551322515246405 7.8559603341693016 2 20.843313465430015 17.630819431691393 2 27.125264520610287 4.5758196996126621 2 6.2276727045904456 2.1571972222078375 2 12.206556866972464 1 2 18.599929083043996 2.0239191318396643 2 22.651398295637016 19.785281228521271 2 1 11.611759251770442 2 10.260648594410309 3.8927553970465918 2 20.569698783015156 2.0763051414859168 2 30.383085279927819 21.238258370532773 2 4.8819637579909863 8.3014135253885915 2 12.476579823083595 9.9417912656319452 2 20.003626597331905 12.502717431759141 2 23.257459898854677 10.804569630085304 2 4.7964576101201324 14.215201249198598 2 14.825170821042173 19.587602240218555 2 22.414380028246331 13.587182742186762 2 25.50043975460558 2.9110080171583501 2 5.0998370946836555 7.2417209685662005 2 7.9797203897354203 8.8863218024305048 2 14.718653184702639 8.2486305784563907 2 25.929572741980966 12.926617587882282 2 2.2223057827018451 4.9413975021935359 2 9.8995939753341879 6.6267420542041187 2 20.727066235063599 9.3044099654574381 2 26.981477780699702 8.1976231142603417 2 2.6343855935905687 21.937927233736069 2 8.4108213302308137 23.316483723195937 2 17.793012539906837 15.84981091434492 2 22.922712332813528 6.3345429683456711 2 1.7839475120349364 16.335983869582456 2 13.737114283671461 11.088650165890218 2 22.341198780923875 23.49356142525372 2 27.57783668137073 1 2 6.5755868817641714 4.0439854423315404 2 8.1457723773544721 4.1555777653374699 2 14.855928368500557 2.6947810154262868 2 26.239024017745045 22.269196649147187 2 2.3001064656293559 6.7442629259833788 2 9.8219904222661274 10.957591646518733 2 18.071247786879567 3.5156232756181458 2 31.523725563384954 17.111379929808184 2 7.2280947066579975 4.8242602822621157 2 10.903219871988801 11.529540368620189 2 16.201985409052472 13.613048602964314 2 25.807775056180503 5.9532246564333997 2 1 12.585793604404369 2 12.668243588621115 15.289379079967233 2 24.287492635405634 14.016916172176613 2 25.009768829317814 1 2 3.4312324933864926 5.4149607340859633 2 9.9669087792100814 14.030301296322222 2 18.582855184060598 7.2023313461879228 2 26.523704818033366 17.116183413176099 2 2.2726972414537356 2.2539857826072143 2 12.438094590471781 2.0945706549293437 2 18.955535418919087 5.2637466903135985 2 29.644284754967099 11.377730886278632 2 6.4996054487378947 14.822254642945445 2 11.934429351438975 20.924885662765384 2 18.917106124142514 15.648201734858651 2 22.886939227615002 3.8825979382130575 2 6.1825778966639016 13.2666856596696 2 16.704414674046699 4.5457137793295574 2 21.279225977416178 14.962853878663703 2 28.960439745260317 4.6568622228315721 2 7.4388520778602638 1 2 9.8425786109970979 3.0792446889202489 2 17.694040106401882 2.2337035137809074 2 21.513485384748797 20.667242116348294 2 1 6.9744005140253913 2 10.704931017262579 5.8954364369739167 2 21.148448651175769 1 2 28.719304700972494 21.015952448315506 2 7.9385122533339523 10.002879917034212 2 12.264502800363687 7.9324156450251175 2 15.469455662477616 10.356477096636761 2 22.993732722134986 9.2129927070760917 2 3.4082475709682258 13.510266524093129 2 15.969401606608168 22.553081504959501 2 22.148418878118726 12.379862365063987 2 24.769869244692583 6.0232016557396664 2 1 8.7096347956650675 2 6.6339109889854342 12.071758411638596 2 17.020714644853097 7.0557492332953888 2 24.519579608505545 9.7866463953838405 2 2.3121929148902378 1 2 13.783123803926465 7.3826940877766738 2 22.473247043689671 11.489812288208029 2 27.909765051929927 8.1592930434057571 2 6.7661713618553927 19.521606622483588 2 7.9949621913922782 18.402602713946834 2 17.889860173865312 13.938964173995883 2 21.057180323256592 5.8600029014772108 2 2.6189255065182424 20.052693131416394 2 14.916386257684861 12.109568410493846 2 18.898590675298621 21.637028009701108 2 26.711577830371862 1 2 5.2808315354966231 5.5123005847384743 2 9.093515647095705 1 2 15.434193528780018 3.6240596457144716 2 26.065074650795079 19.734711621903255 2 1 3.7547148792387506 2 11.642597579076416 8.8008351088756331 2 16.652552870227911 7.8778222924165773 2 29.001281474536338 16.350587897095266 2 6.8133260140196894 7.5378637866426859 2 11.637381582709567 14.79665804860176 2 15.828599213713957 17.599810591227111 2 23.098110444660417 7.5199729892785587 2 1 18.766926606158311 2 12.293608689790139 18.577859935232603 2 24.19537685020115 17.970615884166094 2 23.284493686716722 1 2 5.4577094053598465 4.1061223827308622 2 9.8956366894418384 12.01031538637095 2 17.658402795118924 8.8615061741633649 2 27.086551120244575 12.734460380807411 2 5.9914778612409121 1 2 13.461637004622631 2.204541775256327 2 21.309052741799398 4.7153603299405216 2 27.133477925847348 11.661352422761254 2 8.4727902887723019 13.188068145878379 2 13.339132006569853 16.36037493117248 2 19.825595121135994 9.6476138222821142 2 21.860226359084802 3.7117675687654725 2 5.7829464449040646 16.344156053139223 2 15.407385267750085 5.9530496662555175 2 18.129700522635535 19.940350122131793 2 26.440955424862548 6.6606165243540252 2 5.3310413224111617 2.3701242890282921 2 11.483997669599407 2.022493441902999 2 17.895295276926163 1 2 24.116265439911533 19.988745543339725 2 2.8614648384852823 11.589046502353213 2 9.0258820223671083 4.6680741548910323 2 19.730762933907094 2.9716506601518011 2 28.968775337463164 19.318649480482687 2 4.6454120435387738 11.161703946828528 2 14.3990607569802 6.5201357355543648 2 19.59254614433457 11.519708264217815 2 24.614008594565448 11.633864543156173 2 2.4044496766383108 13.945745271375811 2 17.087105650003732 18.58969842083539 2 18.908227150411683 12.360178325962199 2 27.961424962894988 5.6361895692291686 2 2.7038826389672996 8.3724741455373266 2 9.374922466402257 7.7167401843402423 2 16.750473357871901 10.398259133882627 2 25.418411509004031 9.9386444224963899 2 1 4.5729402623035309 2 12.875801043028069 7.1484039772448185 2 18.70708459061149 9.5059240024729714 2 28.80927214992138 8.489304517880603 2 4.5407207050129488 23.997305478472271 2 9.1024448037017649 19.38614065702432 2 17.450310492134992 16.810964423001256 2 23.839902344931737 4.6166640568579353 2 4.0576516304075998 17.515944002218859 2 14.471088788358765 9.296384934488275 2 20.544113799558271 23.741831322303401 2 24.786253459557116 3.2288339562463828 2 4.4603930935515823 2.1004421814167005 2 10.484999211393205 2.3432245595593608 2 14.295403787746373 3.8747406915130096 2 23.878719076398326 24.333014138206511 2 4.5338148052973768 6.1319262789257323 2 8.9918392816765262 10.641508784981415 2 17.062310244288767 3.0138602124319522 2 27.954702408299848 17.917818832037007 2 6.2154525224638366 5.8448112560782626 2 10.644169528054386 9.3848873984763177 2 15.791236916795496 14.551087443239503 2 24.652470851379491 7.0111392045618404 2 2.0032175077114349 11.0748440859733 2 14.747459642895421 16.50809141327575 2 24.04188473053609 12.632831363706856 2 25.697055503606272 2.0668696514190033 2 3.1039660778150364 2.3471764138520421 2 9.5465319789272325 15.886297124413765 2 18.911117146956389 6.3692379243438184 2 24.686848542222155 16.271833187452167 2 4.4891018069157047 1 2 11.400182544327748 3.6130863932643011 2 19.597416209445864 4.6609625045514536 2 27.972332389812035 13.282937367540704 2 8.7202988357171485 17.042192975163267 2 10.230251187026186 20.224811806062338 2 19.546222353026646 13.825321535878308 2 21.561553620052567 1.7760430021017546 2 7.4016358385586134 12.777615902793464 2 15.675407833236324 1 2 20.147922547170666 16.534283971331721 2 27.269866139416557 3.1527371957721542 2 8.6790754880280634 2.8238431547431011 2 12.08501090598984 4.4545095391165592 2 16.471667799819144 1 2 22.74506423925569 17.438013570738047 2 1 9.7434160687576785 2 10.014634251658402 4.809301142917195 2 22.305127665432146 2.6006494193041929 2 26.638573955380696 24.074795971817441 2 7.7380147208417895 7.036961742395091 2 13.972814686281959 10.195109481934757 2 16.449839160083684 12.031409848670627 2 21.349055150826629 7.5782449109956751 2 4.6711939680387644 12.24126943721571 2 12.90772879946962 23.654377265164364 2 22.999117161433649 14.528070483608388 2 26.137713054112712 4.6833321472654896 2 4.6624573812465746 10.11235002947056 2 6.7152257319313975 10.120357308424373 2 16.999676142410003 5.8991645382134816 2 26.25729767048411 9.1940114314021706 2 2.1101209141664103 3.1384494663918279 2 13.865262362867721 4.8781594894900495 2 21.964854780989207 9.4626139335960122 2 27.443568485131767 6.3957634160415475 2 6.9419274965391642 16.668474404184447 2 5.8423334024796354 18.608956253511341 2 16.364260867473497 16.751854296486606 2 20.338135144247129 6.6316419851362527 2 2.7454627435693908 17.779313691527104 2 13.175275801501767 11.992045730733111 2 17.004780571991727 21.112384954957559 2 28.897009340617839 2.1525028843335514 2 5.7683858548453451 8.8929081902904343 2 10.619373032002278 1 2 12.494621893642833 5.9317815671960359 2 27.126052768423449 20.848762888429082 2 </DataArray>
</Points>
<Cells>
<DataArray Name="connectivity" format="ascii" type="Int32">0</DataArray>
<DataArray Name="offsets" format="ascii" type="Int32">0</DataArray>
<DataArray Name="types" format="ascii" type="UInt8">1</DataArray>
</Cells>
<PointData>