<?xml version="1.0" ?>
<VTKFile byte_order="LittleEndian" type="UnstructuredGrid" version="0.1">
<UnstructuredGrid>
<Piece NumberOfCells="0" NumberOfPoints="23">
<Points>
<DataArray NumberOfComponents="3" format="ascii" type="Float32">0 0 0 34.016341990331973 8.4404200647386709 2 41.734269207017576 6.3116771187099161 2 82.898409829779681 1 2 37.917262485495428 7.7342462245016508 2 80.302709291506318 10.631312534258528 2 31.72077422351812 8.0920019308707101 2 40.115211776586762 4.686103056528391 2 81.770616831939648 9.0435305125047893 2 33.29350515930971 3.7419647958931517 2 38.812136747334776 10.105240389195552 2 42.154103465253769 1 2 34.086577701274308 1.2 2 39.910536617191482 1.4 2 82.43143387072621 5.8882293831431429 2 37.566975196599834 5.5306312382239513 2 78.795190160720963 12.197013390562969 2 80.656590980662315 4.0398565294841218 2 30.958192918889363 12.585598204306228 2 35.162976766193289 5.2557600030779819 2 38.769734824379228 3.4370242955017396 2 81.446218581240203 2.098294842847201 2 31.394807854191207 10.256333991585596 2 </DataArray>
</Points>
<Cells>
<DataArray Name="connectivity" format="ascii" type="Int32">0</DataArray>
<DataArray Name="offsets" format="ascii" type="Int32">0</DataArray>
<DataArray Name="types" format="ascii" type="UInt8">1</DataArray>
</Cells>
<PointData>
<DataArray Name="Points" NumberOfComponents="3" format="ascii" type="Float32">0 0 0 34.016341990331973 8.4404200647386709 2 41.734269207017576 6.3116771187099161 2 82.898409829779681 1 2 37.917262485495428 7.7342462245016508 2 80.302709291506318 10.631312534258528 2 31.72077422351812 8.0920019308707101 2 40.115211776586762 4.686103056528391 2 81.770616831939648 9.0435305125047893 2 33.29350515930971 3.7419647958931517 2 38.812136747334776 10.105240389195552 2 42.154103465253769 1 2 34.086577701274308 1.2 2 39.910536617191482 1.4 2 82.43143387072621 5.8882293831431429 2 37.566975196599834 5.5306312382239513 2 78.795190160720963 12.197013390562969 2 80.656590980662315 4.0398565294841218 2 30.958192918889363 12.585598204306228 2 35.162976766193289 5.2557600030779819 2 38.769734824379228 3.4370242955017396 2 81.446218581240203 2.098294842847201 2 31.394807854191207 10.256333991585596 2 </DataArray>
<DataArray Name="forces" NumberOfComponents="3" format="ascii" type="Float32">0 0 0 0.018498904907173153 0.056517783771902884 0.0 0.0017343202129786635 0.015994867288206788 0.0 -0.019499560729519194 -0.28473539716371271 0.0 0.0042871961985902068 0.02903933426070586 0.0 0.0052110201847707788 0.041460922590291008 0.0 0.013919983170948962 0.036186270532159684 0.0 0.0068728052355150615 0.019411963695157047 0.0 -0.0257655864868627 0.0058585387742798832 0.0 0.01094070458277225 0.033157117233206024 0.0 -0.0030107035822102782 0.029682114285129162 0.0 0.0020129538864650243 -0.14426314582238514 0.0 -0.00095081629491061692 -0.24448112868304345 0.0 -0.0057879098974644022 -0.12872996415591659 0.0 0.0095821715383613108 0.023868192902571819 0.0 0.0063275913843087953 0.017477556608076483 0.0 -0.018353193868709494 0.019294299221827155 0.0 -0.019048421644927371 0.046321623871292142 0.0 0.0044056641626930397 0.020374558582614357 0.0 -0.0057749610938541487 0.013251883439964404 0.0 0.0058349853769364968 0.0087362664503741697 0.0 -0.013255938955502672 0.043482000683089203 0.0 0.0056521053400187399 0.026617879641121271 0.0 </DataArray>
<DataArray Name="radii" format="ascii" type="Float32">0 1.2 1.4 1 1.2 1.2 1.2 1 1 1 1.4 1 1.2 1.4 1.4 1 1 1.2 1.4 1.4 1 1 1 </DataArray>
</PointData>
<CellData/>
</Piece>
</UnstructuredGrid>
</VTKFile>
