<?xml version="1.0" ?>
<VTKFile byte_order="LittleEndian" type="UnstructuredGrid" version="0.1">
<UnstructuredGrid>
<Piece NumberOfCells="0" NumberOfPoints="37">
<Points>
<DataArray NumberOfComponents="3" format="ascii" type="Float32">12.341278353161684 1.100000240616674 2 20.675946440280669 4.9213535358978593 2 20.995915751189376 1 2 22.067049308528457 2.9216326097687437 2 23.206456405513503 1 2 35.206069614034703 1 2 44.539882172427262 1 2 46.636935684356757 1.1112512118893008 2 51.784730173394728 1 2 53.88009033163771 1.1 2 58.125601141526872 1.1 2 65.573830311974689 1.1 2 67.654230213743787 1 2 80.460606579422091 1.2234394771246906 2 84.80083122277847 1.2285773561628321 2 87.098217792841311 1 2 88.967308135123147 1 2 93.691051824971737 1.1 2 77.622146948860035 8.8264194829669727 2 82.39234474197356 9.6267768993049785 2 78.180602963729029 1.2000000000000002 2 85.132832822769217 5.2380354289862199 2 78.941289910288674 7.0446606767323248 2 79.325544133824366 3.2107856391525553 2 84.089557586893733 3.2966372162057112 2 81.234325019571671 7.4987955658308705 2 75.907244996863056 1 2 84.789996325043745 9.6000081285200132 2 82.822520471366715 5.3166754011689976 2 81.893487355762289 3.2078417126253314 2 82.75358964912796 1 2 80.324469371536765 10.383528006407618 2 76.894155927387715 3.2806279757459387 2 87.301489732170239 5.654783620331246 2 80.521164262245719 5.1799051552295996 2 83.672805527676502 7.4767378055378586 2 86.041045171557968 7.4692427682882538 2 </DataArray>
</Points>
<Cells>
<DataArray Name="connectivity" format="ascii" type="Int32">0</DataArray>
<DataArray Name="offsets" format="ascii" type="Int32">0</DataArray>
<DataArray Name="types" format="ascii" type="UInt8">1</DataArray>
</Cells>
<PointData>
<DataArray Name="Points" NumberOfComponents="3" format="ascii" type="Float32">12.341278353161684 1.100000240616674 2 20.675946440280669 4.9213535358978593 2 20.995915751189376 1 2 22.067049308528457 2.9216326097687437 2 23.206456405513503 1 2 35.206069614034703 1 2 44.539882172427262 1 2 46.636935684356757 1.1112512118893008 2 51.784730173394728 1 2 53.88009033163771 1.1 2 58.125601141526872 1.1 2 65.573830311974689 1.1 2 67.654230213743787 1 2 80.460606579422091 1.2234394771246906 2 84.80083122277847 1.2285773561628321 2 87.098217792841311 1 2 88.967308135123147 1 2 93.691051824971737 1.1 2 77.622146948860035 8.8264194829669727 2 82.39234474197356 9.6267768993049785 2 78.180602963729029 1.2000000000000002 2 85.132832822769217 5.2380354289862199 2 78.941289910288674 7.0446606767323248 2 79.325544133824366 3.2107856391525553 2 84.089557586893733 3.2966372162057112 2 81.234325019571671 7.4987955658308705 2 75.907244996863056 1 2 84.789996325043745 9.6000081285200132 2 82.822520471366715 5.3166754011689976 2 81.893487355762289 3.2078417126253314 2 82.75358964912796 1 2 80.324469371536765 10.383528006407618 2 76.894155927387715 3.2806279757459387 2 87.301489732170239 5.654783620331246 2 80.521164262245719 5.1799051552295996 2 83.672805527676502 7.4767378055378586 2 86.041045171557968 7.4692427682882538 2 </DataArray>
<DataArray Name="forces" NumberOfComponents="3" format="ascii" type="Float32">0.0 0.0 0.0 1.518531403929333e-06 2.7647422607521419e-06 0.0 6.0804484007117074e-07 -3.2014507064526412e-06 0.0 8.24387381875221e-07 1.4789647135530017e-06 0.0 0.0 0.0 0.0 -1.0450422761212623e-06 -3.3755303830263935e-06 0.0 0.0 0.0 0.0 0.0 0.0 0.0 0.0 0.0 0.0 -0.003307101680934013 -0.00024399729287399077 0.0 -0.0058349818026971539 -0.00055642570408772859 0.0 0.0094555065441852132 -0.0019914769445839317 0.0 -0.013328310935206327 -0.0079833892149772465 0.0 -0.095399679982325708 0.0097194810549705978 0.0 -0.10088549242640393 0.0029265109894663017 0.0 0.09553701816485774 -0.010299774843732581 0.0 -0.086178535144180904 -0.013689021365529342 0.0 -0.048415788024509215 -0.038238838280746319 0.0 -0.014832803302286087 0.021069890440375421 0.0 0.0029623401368644498 0.0056093931814263929 0.0 0.077691151170248718 -0.079508105058007331 0.0 0.0019451549109239712 0.0036161733507189243 0.0 0.049708779113576657 0.017354063642801818 0.0 -0.0013826915949664228 -0.0022733290329069169 0.0 -0.00095722705685346589 -0.0035752871353716474 0.0 -0.035463377203798066 -0.0052366678297060959 0.0 -0.030029002259108026 -0.0027796837021678723 0.0 0.0 0.0 0.0 0.0 0.0 0.0 5.5648859030591824e-05 -0.0015359872800532954 0.0 0.095399679982325708 -0.0097194810549705978 0.0 0.0 0.0 0.0 -0.047662148911140685 0.082287788760175201 0.0 0.0072681260400293607 -0.010586355134555444 0.0 0.00033911488186532572 0.0037684300976129357 0.0 0.032501037066933615 -0.00037272535172029663 0.0 -0.014239258467465814 0.00026128170284844994 0.0 </DataArray>
<DataArray Name="radii" format="ascii" type="Float32">1.1 1.1 1 1.2000000000000002 1 1 1 1.1 1 1.1 1.1 1.1 1 1.2000000000000002 1.2000000000000002 1 1 1.1 1 1.2000000000000002 1.2000000000000002 1.2000000000000002 1.2000000000000002 1.1 1 1.2000000000000002 1 1.2000000000000002 1.1 1.2000000000000002 1 1 1.2000000000000002 1 1.2000000000000002 1.2000000000000002 1.2000000000000002 </DataArray>
</PointData>
<CellData/>
</Piece>
</UnstructuredGrid>
</VTKFile>
