<?xml version="1.0" ?>
<VTKFile byte_order="LittleEndian" type="UnstructuredGrid" version="0.1">
<UnstructuredGrid>
<Piece NumberOfCells="0" NumberOfPoints="124">
<Points>
<DataArray NumberOfComponents="3" format="ascii" type="Float32">1.2400000000000002 6.2779594422180782 2 8.0124395673747291 1.2400000000000002 2 4.4336845848809876 7.2292367705377005 2 9.1964463665640324 6.9597236943679635 2 12.339364659626943 6.1037775922960549 2 15.540701479778086 8.5569702352442878 2 16.918465664251674 2.3756850001820271 2 23.445947633782435 4.9419771889137758 2 26.009671019043495 1.09 2 27.724565491570321 8.2615055199175309 2 29.706071157005756 2.6481947252486999 2 33.130559854900469 5.2649418229904432 2 39.32272706528201 5.4208965540486096 2 40.822647056660664 3.6401945543168552 2 45.379356000358577 3.0862683120163164 2 47.645288674461327 5.1066994210025864 2 52.177199665121016 3.8418433917076227 2 53.369327777935936 5.8386119740510969 2 58.235732315396099 5.676704337658232 2 63.162302543236997 1.09 2 62.072622048858527 7.6127430466574708 2 65.832887834742195 5.1340722480728012 2 69.62039352632668 1.2400000000000002 2 72.594276476880623 7.7134833760151915 2 73.800229383049498 5.7054426113245338 2 77.005210192060801 9.3166547810534652 2 89.454390903812538 4.5346292360332683 2 91.3480996776632 3.0860111244006418 2 94.476455267913806 5.1538884458258227 2 95.352810059314862 7.2970973706137237 2 96.474850055395024 1.2400000000000002 2 1.2400000000000002 3.7183781138427352 2 3.3754035862603486 2.4588255618468509 2 6.871677521661792 6.8085759667576644 2 14.908236880770557 1.2400000000000002 2 14.804090707622084 6.1943643147674523 2 25.313339991231793 6.5692588262593032 2 28.849014810543913 6.0561923333936178 2 40.113756443784524 1.2400000000000002 2 40.972084941977073 7.0657630945273384 2 46.776498556376495 7.4249638369897708 2 55.791032450780257 5.3167261358245579 2 57.279700908578739 3.2670284091261594 2 64.327223554179568 3.1845721199054049 2 66.932933687222189 7.6401423566900428 2 69.813845664093193 3.7054759584741093 2 71.49217824312791 9.9097508069788116 2 73.947928932560828 9.8944865761558223 2 90.86451180540621 9.3569600781288482 2 93.288762882155225 9.8774817489787932 2 96.281202052162485 3.6943240098965475 2 98.76 7.958052072889271 2 10.423647753097182 1.09 2 19.010083420077478 5.1882955606000909 2 27.947257433654062 3.9119347512732268 2 32.651007589013226 3.1400493957246516 2 37.324869238796232 6.3623758541826909 2 36.545394803887653 4.3270910989076778 2 47.98800343486014 2.8115533026793758 2 59.594443890633549 2.7582707557903889 2 73.421895983951558 1.09 2 92.315685846342362 1.09 2 3.3612432027496895 4.9960054935740974 2 7.8088635939152695 4.5351855008970015 2 5.4858291626688818 3.7236419604114981 2 11.982987027004103 3.3626913425024196 2 17.502228819406401 7.0359142859819537 2 24.243697334266429 2.6006220000143001 2 30.686526668499276 7.8068157884875413 2 42.507865503161653 1.8314706654767074 2 45.147279024471182 5.5544707385200622 2 49.374458686913279 6.8816673229372638 2 54.422940505451919 3.2564196804159669 2 60.569054425168424 4.8642722044370705 2 63.00080159190135 5.2636264922966616 2 68.28470200922871 5.5562395873199426 2 67.425620617168804 3.2261055075753333 2 70.618675492562019 6.2508038851747605 2 75.07177950295187 7.6768043568962723 2 87.269314812103929 3.6507946780033329 2 90.554071292844355 6.7153729807996898 2 96.713747834242497 9.3540220700028041 2 98.76 1.2400000000000002 2 1.2400000000000002 1.2400000000000002 2 5.5332595295394142 1.2400000000000002 2 7.1079368418540838 9.2678868474988043 2 14.44258622582919 3.6801370561905937 2 16.746706204181777 4.6785120728630529 2 25.372208485678534 9.04370444442673 2 30.885994596124437 4.6522827088151342 2 37.649519729169235 1.2400000000000002 2 42.684893855538228 5.272815684628501 2 44.125702709118023 7.8140512066287817 2 55.033595137954443 7.6761044812275161 2 55.850836885345267 1.2400000000000002 2 64.520461028882607 7.2155456492401973 2 66.792193464279009 10.096913401543981 2 69.31874452798408 8.310708768694834 2 69.170529145825725 10.778145601356867 2 73.963177843126829 12.415949407957971 2 90.046016639631148 12.520917769933224 2 92.890337095051066 7.4335624882594535 2 97.391674197272266 5.8991885074082546 2 98.76 3.7272686122591705 2 10.267171156633539 5.0687227761824349 2 18.650482075951267 1.09 2 28.186011550137966 1.09 2 31.205853973647748 1.09 2 35.173144698478268 6.017728031297211 2 38.512073122070269 3.3983931548658153 2 50.132679847859933 3.1211418051989388 2 62.00765197641023 3.0162157539543881 2 72.029243149962412 4.4454037721317654 2 92.306198069699462 5.190154088312207 2 9.5447133163745104 3.032133389700614 2 19.550224950511335 3.0752340319131894 2 25.814973711312739 4.3021456954969635 2 33.371651799519455 1.09 2 36.38321632051818 8.3294992350982682 2 34.823772051549611 2.994307166695739 2 49.33463694867315 1.0902731849841847 2 60.988909172223593 1.09 2 71.685466427110214 2.2950801056798964 2 93.651401882090155 3.1569828754173508 2 </DataArray>
</Points>
<Cells>
<DataArray Name="connectivity" format="ascii" type="Int32">0</DataArray>
<DataArray Name="offsets" format="ascii" type="Int32">0</DataArray>
<DataArray Name="types" format="ascii" type="UInt8">1</DataArray>
</Cells>
<PointData>
<DataArray Name="Points" NumberOfComponents="3" format="ascii" type="Float32">1.2400000000000002 6.2779594422180782 2 8.0124395673747291 1.2400000000000002 2 4.4336845848809876 7.2292367705377005 2 9.1964463665640324 6.9597236943679635 2 12.339364659626943 6.1037775922960549 2 15.540701479778086 8.5569702352442878 2 16.918465664251674 2.3756850001820271 2 23.445947633782435 4.9419771889137758 2 26.009671019043495 1.09 2 27.724565491570321 8.2615055199175309 2 29.706071157005756 2.6481947252486999 2 33.130559854900469 5.2649418229904432 2 39.32272706528201 5.4208965540486096 2 40.822647056660664 3.6401945543168552 2 45.379356000358577 3.0862683120163164 2 47.645288674461327 5.1066994210025864 2 52.177199665121016 3.8418433917076227 2 53.369327777935936 5.8386119740510969 2 58.235732315396099 5.676704337658232 2 63.162302543236997 1.09 2 62.072622048858527 7.6127430466574708 2 65.832887834742195 5.1340722480728012 2 69.62039352632668 1.2400000000000002 2 72.594276476880623 7.7134833760151915 2 73.800229383049498 5.7054426113245338 2 77.005210192060801 9.3166547810534652 2 89.454390903812538 4.5346292360332683 2 91.3480996776632 3.0860111244006418 2 94.476455267913806 5.1538884458258227 2 95.352810059314862 7.2970973706137237 2 96.474850055395024 1.2400000000000002 2 1.2400000000000002 3.7183781138427352 2 3.3754035862603486 2.4588255618468509 2 6.871677521661792 6.8085759667576644 2 14.908236880770557 1.2400000000000002 2 14.804090707622084 6.1943643147674523 2 25.313339991231793 6.5692588262593032 2 28.849014810543913 6.0561923333936178 2 40.113756443784524 1.2400000000000002 2 40.972084941977073 7.0657630945273384 2 46.776498556376495 7.4249638369897708 2 55.791032450780257 5.3167261358245579 2 57.279700908578739 3.2670284091261594 2 64.327223554179568 3.1845721199054049 2 66.932933687222189 7.6401423566900428 2 69.813845664093193 3.7054759584741093 2 71.49217824312791 9.9097508069788116 2 73.947928932560828 9.8944865761558223 2 90.86451180540621 9.3569600781288482 2 93.288762882155225 9.8774817489787932 2 96.281202052162485 3.6943240098965475 2 98.76 7.958052072889271 2 10.423647753097182 1.09 2 19.010083420077478 5.1882955606000909 2 27.947257433654062 3.9119347512732268 2 32.651007589013226 3.1400493957246516 2 37.324869238796232 6.3623758541826909 2 36.545394803887653 4.3270910989076778 2 47.98800343486014 2.8115533026793758 2 59.594443890633549 2.7582707557903889 2 73.421895983951558 1.09 2 92.315685846342362 1.09 2 3.3612432027496895 4.9960054935740974 2 7.8088635939152695 4.5351855008970015 2 5.4858291626688818 3.7236419604114981 2 11.982987027004103 3.3626913425024196 2 17.502228819406401 7.0359142859819537 2 24.243697334266429 2.6006220000143001 2 30.686526668499276 7.8068157884875413 2 42.507865503161653 1.8314706654767074 2 45.147279024471182 5.5544707385200622 2 49.374458686913279 6.8816673229372638 2 54.422940505451919 3.2564196804159669 2 60.569054425168424 4.8642722044370705 2 63.00080159190135 5.2636264922966616 2 68.28470200922871 5.5562395873199426 2 67.425620617168804 3.2261055075753333 2 70.618675492562019 6.2508038851747605 2 75.07177950295187 7.6768043568962723 2 87.269314812103929 3.6507946780033329 2 90.554071292844355 6.7153729807996898 2 96.713747834242497 9.3540220700028041 2 98.76 1.2400000000000002 2 1.2400000000000002 1.2400000000000002 2 5.5332595295394142 1.2400000000000002 2 7.1079368418540838 9.2678868474988043 2 14.44258622582919 3.6801370561905937 2 16.746706204181777 4.6785120728630529 2 25.372208485678534 9.04370444442673 2 30.885994596124437 4.6522827088151342 2 37.649519729169235 1.2400000000000002 2 42.684893855538228 5.272815684628501 2 44.125702709118023 7.8140512066287817 2 55.033595137954443 7.6761044812275161 2 55.850836885345267 1.2400000000000002 2 64.520461028882607 7.2155456492401973 2 66.792193464279009 10.096913401543981 2 69.31874452798408 8.310708768694834 2 69.170529145825725 10.778145601356867 2 73.963177843126829 12.415949407957971 2 90.046016639631148 12.520917769933224 2 92.890337095051066 7.4335624882594535 2 97.391674197272266 5.8991885074082546 2 98.76 3.7272686122591705 2 10.267171156633539 5.0687227761824349 2 18.650482075951267 1.09 2 28.186011550137966 1.09 2 31.205853973647748 1.09 2 35.173144698478268 6.017728031297211 2 38.512073122070269 3.3983931548658153 2 50.132679847859933 3.1211418051989388 2 62.00765197641023 3.0162157539543881 2 72.029243149962412 4.4454037721317654 2 92.306198069699462 5.190154088312207 2 9.5447133163745104 3.032133389700614 2 19.550224950511335 3.0752340319131894 2 25.814973711312739 4.3021456954969635 2 33.371651799519455 1.09 2 36.38321632051818 8.3294992350982682 2 34.823772051549611 2.994307166695739 2 49.33463694867315 1.0902731849841847 2 60.988909172223593 1.09 2 71.685466427110214 2.2950801056798964 2 93.651401882090155 3.1569828754173508 2 </DataArray>
<DataArray Name="forces" NumberOfComponents="3" format="ascii" type="Float32">-0.0014161070109532682 0.00085581562899398299 0.0 0.00089866960053086586 0.0 0.0 -0.0049212782748169421 0.003572905493393337 0.0 -0.0031707313636680388 0.006245340793136548 0.0 -0.0013732952997751128 0.0058055222330652776 0.0 0.0016003217067229792 0.0051407705025589643 0.0 0.0016259791659098272 0.0034644762508927937 0.0 0.002262386730844172 0.0027076290861580048 0.0 0.00093906931698324245 -0.0041626794949352376 0.0 -0.0011401051786477049 0.0039608938702556541 0.0 -0.00040342495358836744 0.002761092476966126 0.0 0.00060407885126984159 0.0014965471485311923 0.0 -0.0011791265132342897 0.0019869960059701861 0.0 -2.5117056913578732e-05 0.0029691136906819758 0.0 0.00075105433963091174 0.00071013021021477485 0.0 -0.0013058126938182372 0.0039682173996360929 0.0 0.00045886103211466821 0.0026880913934794115 0.0 -0.0013558514144396214 0.0037759549178392124 0.0 -0.0016195824459400293 0.0048712284180116028 0.0 -0.0023213417032110512 -4.5696029883552688e-05 0.0 -0.015335273183843421 0.0025210943394358598 0.0 -0.043492922331112877 0.015002532576617222 0.0 -0.0072830602350799946 -0.033964970410953997 0.0 -0.036511364381708183 0.016131204379325029 0.0 0.001773846258552689 -0.0054265589703825796 0.0 0.011152200435576909 0.0070630263859239387 0.0 -0.026762679801354092 0.012167776166338511 0.0 0.014782109562174073 -0.0013115624450328557 0.0 0.0023003140365335179 0.0081915856868528519 0.0 0.015902157809485416 0.0079080705102546403 0.0 -0.0042737638571384295 -0.0065277156746224863 0.0 -0.0042667016997336663 0.00013336192552619737 0.0 0.00085871813402331855 0.00087384333107889186 0.0 -0.0034347979129889005 0.0093954225100102047 0.0 0.0019864064819029789 -0.009464168933624938 0.0 -0.00052416734940487208 0.0054781209321564722 0.0 0.00055300155669036201 0.0051153175611188305 0.0 -0.0016980957375984339 0.0030577852044318512 0.0 0.0023214671519454829 -0.0034536589319418875 0.0 0.0002010758925728083 0.00080540106870152848 0.0 -0.0015463615670543208 0.0041267210143131738 0.0 -0.00093392103584292454 0.0021316390025020856 0.0 0.0 0.0 0.0 -0.0026038946849339549 0.0038701817185082415 0.0 -0.03204697077834541 0.028802017481031974 0.0 -0.09698123396741401 0.040144336808906972 0.0 0.010252214780111894 -0.0030596712499489126 0.0 -0.027924772555480214 0.032633712540930837 0.0 -0.0024971755047863246 0.0012408235942170023 0.0 0.00900233067066155 0.012463203664066702 0.0 -0.00089156277791547904 0.0022995494065947445 0.0 0.0071517400371348752 0.0051234427262314202 0.0 -0.00094194086588542808 -0.045659707385244212 0.0 0.0013777657930375588 0.0011377902869378021 0.0 -0.0010050233582463829 0.0025628865775514128 0.0 -0.0007422297337911876 0.0015643519747484235 0.0 0.0011160686664802911 0.00068782995573419647 0.0 -0.0010340608774909344 0.0014657578758247153 0.0 -2.3799744448044571e-05 0.003641615562381505 0.0 -0.0014575306879206699 0.002539598988719023 0.0 -0.018640015175522884 -0.080475190496299018 0.0 -0.017116172204701879 -0.088910937227470552 0.0 0.00030593105173269642 0.00068360454064874798 0.0 0.00063976144808269506 0.0094005203961702814 0.0 0.001697630921582035 0.0018046474207329705 0.0 0.0 0.0 0.0 0.0014098789330858031 0.004403568786369912 0.0 0.0016598731757018672 0.0018586735412636692 0.0 0.0 0.0 0.0 0.0023237880523508132 0.004441268570346101 0.0 0.0016290713533873191 0.00094326231353389725 0.0 0.0014269791817901206 0.0014669978347453033 0.0 0.000103272322193107 0.00016138811664627439 0.0 0.0014773977884141119 0.0038944439187982138 0.0 -0.0024752214074015904 0.0014787804817608576 0.0 0.054593130270970999 -0.03199691396409135 0.0 0.012439834959537432 -0.002423210940823298 0.0 -0.043205700663805524 0.02627857280107268 0.0 0.060459414892935014 -0.037853669468485202 0.0 0.088827689977157412 0.0039351181621084114 0.0 0.016936028034168576 0.023151686333165215 0.0 0.0039738324796472933 0.011586698697342983 0.0 0.19701926652473034 0.0 0.0 -0.018970068441783287 -0.012515402564735888 0.0 0.00074360078772957262 -0.0009272438029024533 0.0 0.00092076075316226038 0.0096745145023536504 0.0 0.0 0.0 0.0 -2.8675322283835828e-05 0.0045835320675629721 0.0 -0.0009417832684578797 0.0052604632211199556 0.0 -0.00028824092077441021 0.003353529230790644 0.0 0.0011568661504104028 -0.0034208504228214857 0.0 0.0013798558006331472 0.0018772533307937667 0.0 -0.00010158834671381088 0.00022492853625604163 0.0 -5.4392164252527924e-05 0.0027687278226341417 0.0 -2.1327668726141974e-06 -0.0069487145917373899 0.0 0.016233428712195512 0.0076223718029667722 0.0 -0.0036512928773929304 0.0057133131495969956 0.0 0.0040734905253918922 0.0081806183328595079 0.0 -0.014089208084049572 0.023246973208476018 0.0 -0.014437970287795353 0.010055387309947764 0.0 0.010347409283566499 0.014087841729781296 0.0 0.0016315447979157374 -0.0008086593989751153 0.0 0.0054428983123633199 0.00067309324489201426 0.0 0.0014198349906361367 1.9536828048985073e-05 0.0 -0.0025161737367642876 0.0060642639995085405 0.0 0.00074900179582242142 -0.013687936762002086 0.0 0.0014746459552248473 -0.0025144534326456357 0.0 -0.0023386583285373644 -0.012683087866169644 0.0 0.00058707351515258728 0.003089646890362111 0.0 -0.00048306805872551763 0.0014165613707007273 0.0 0.0015047705315703614 -0.002202530283828324 0.0 -0.0055280409639498701 0.00031826986229692379 0.0 0.041413968255096294 0.0083088824920407971 0.0 0.0040828865076479037 0.019307450776784415 0.0 -0.00066435826259913979 0.0039765477372360365 0.0 8.2819009847758332e-05 0.00039949238254678683 0.0 -0.0009085185180873704 0.0046864755578028567 0.0 -0.001623253764860437 -0.0063342210079793768 0.0 0.0 0.0 0.0 -0.00048581035748470865 0.00025579054289571351 0.0 -0.0013216754961972363 5.7158188267779124e-05 0.0 -0.0043581920571912122 -0.0051333536927415926 0.0 0.0407352098353145 -0.01974667897924437 0.0 0.0056324988322155947 0.0063410201557345183 0.0 </DataArray>
<DataArray Name="radii" format="ascii" type="Float32">1.2400000000000002 1.2400000000000002 1.2400000000000002 1.09 1.2400000000000002 1.2400000000000002 1.09 1.2400000000000002 1.09 1.2400000000000002 1.09 1.09 1.09 1.2400000000000002 1.2400000000000002 1.2400000000000002 1.09 1.2400000000000002 1.2400000000000002 1.09 1.2400000000000002 1.2400000000000002 1.2400000000000002 1.2400000000000002 1.09 1.2400000000000002 1.2400000000000002 1.2400000000000002 1.09 1.2400000000000002 1.2400000000000002 1.2400000000000002 1.2400000000000002 1.2400000000000002 1.2400000000000002 1.2400000000000002 1.2400000000000002 1.2400000000000002 1.2400000000000002 1.2400000000000002 1.2400000000000002 1.2400000000000002 1.2400000000000002 1.2400000000000002 1.2400000000000002 1.2400000000000002 1.2400000000000002 1.2400000000000002 1.2400000000000002 1.2400000000000002 1.2400000000000002 1.2400000000000002 1.09 1.09 1.09 1.09 1.09 1.09 1.09 1.09 1.09 1.09 1.2400000000000002 1.2400000000000002 1.2400000000000002 1.2400000000000002 1.2400000000000002 1.2400000000000002 1.2400000000000002 1.2400000000000002 1.2400000000000002 1.2400000000000002 1.2400000000000002 1.2400000000000002 1.2400000000000002 1.2400000000000002 1.2400000000000002 1.2400000000000002 1.2400000000000002 1.2400000000000002 1.2400000000000002 1.2400000000000002 1.2400000000000002 1.2400000000000002 1.2400000000000002 1.2400000000000002 1.2400000000000002 1.2400000000000002 1.2400000000000002 1.2400000000000002 1.2400000000000002 1.2400000000000002 1.2400000000000002 1.2400000000000002 1.2400000000000002 1.2400000000000002 1.2400000000000002 1.2400000000000002 1.2400000000000002 1.2400000000000002 1.2400000000000002 1.2400000000000002 1.2400000000000002 1.2400000000000002 1.09 1.09 1.09 1.09 1.09 1.09 1.09 1.09 1.09 1.09 1.09 1.09 1.09 1.09 1.09 1.09 1.09 1.09 1.09 1.09 </DataArray>
</PointData>
<CellData/>
</Piece>
</UnstructuredGrid>
</VTKFile>
