<?xml version="1.0" ?>
<VTKFile byte_order="LittleEndian" type="UnstructuredGrid" version="0.1">
<UnstructuredGrid>
<Piece NumberOfCells="0" NumberOfPoints="52">
<Points>
<DataArray NumberOfComponents="3" format="ascii" type="Float32">12.62774064764907 1.1 2 21.224664460094303 5.661175671794255 2 20.771558776403815 1 2 21.812746215830241 3.0855823312280322 2 22.748437883917155 1 2 35.457351734044558 1 2 44.6774872116602 1 2 46.748985925180762 1.1 2 51.41654476649596 1 2 53.514162364186191 1.100002069279959 2 58.277157863115612 1.1 2 65.282826293821188 1.1 2 67.345422265715882 1 2 80.572620360676098 1.4000000000000004 2 85.031064763553573 3.8201706623476919 2 88.307729404945306 1 2 90.207680445407604 1 2 94.234793477944535 1.1 2 75.485776144463685 13.738006640860903 2 83.433258220342779 13.184735316920634 2 77.749542593938301 1.4000000000000004 2 86.251375573177583 6.2704604480008026 2 77.618768007418922 12.723080192416035 2 77.87760567795425 5.792363706652889 2 83.470644647197091 5.8632811520172972 2 80.671509896023011 13.091354003252748 2 75.396298241917663 1 2 88.144061090344593 14.085485684047459 2 81.901461917409833 8.0949364522237062 2 80.804955943774544 5.7052549024460646 2 83.523272128724912 1 2 78.928596723079579 14.716848788160355 2 73.755921613323594 3.5351118459139568 2 89.315078497406574 8.624763836509814 2 79.403444190091676 10.642189795441194 2 84.923207293866923 10.825255349243253 2 88.996687153266222 10.950143363260503 2 79.163553907788568 3.6355088235869966 2 86.021605305760545 1.4000000000000004 2 82.510365694399042 15.780606569707333 2 76.427317699058889 3.7056240065733341 2 88.517171330851838 6.8379753609722211 2 75.435309858123603 11.745829489042618 2 82.152714781867175 10.714253527966601 2 85.766556040702156 13.668300284347524 2 82.381280861935053 3.4161616931990166 2 75.604111318294969 5.931912639834553 2 79.328759816897417 7.998387862518177 2 86.920976135648331 12.055097678503602 2 86.977073062150609 8.9610999500819233 2 76.922899589933408 7.8090441704025535 2 84.511863057039747 8.3183354171048816 2 </DataArray>
</Points>
<Cells>
<DataArray Name="connectivity" format="ascii" type="Int32">0</DataArray>
<DataArray Name="offsets" format="ascii" type="Int32">0</DataArray>
<DataArray Name="types" format="ascii" type="UInt8">1</DataArray>
</Cells>
<PointData>
<DataArray Name="Points" NumberOfComponents="3" format="ascii" type="Float32">12.62774064764907 1.1 2 21.224664460094303 5.661175671794255 2 20.771558776403815 1 2 21.812746215830241 3.0855823312280322 2 22.748437883917155 1 2 35.457351734044558 1 2 44.6774872116602 1 2 46.748985925180762 1.1 2 51.41654476649596 1 2 53.514162364186191 1.100002069279959 2 58.277157863115612 1.1 2 65.282826293821188 1.1 2 67.345422265715882 1 2 80.572620360676098 1.4000000000000004 2 85.031064763553573 3.8201706623476919 2 88.307729404945306 1 2 90.207680445407604 1 2 94.234793477944535 1.1 2 75.485776144463685 13.738006640860903 2 83.433258220342779 13.184735316920634 2 77.749542593938301 1.4000000000000004 2 86.251375573177583 6.2704604480008026 2 77.618768007418922 12.723080192416035 2 77.87760567795425 5.792363706652889 2 83.470644647197091 5.8632811520172972 2 80.671509896023011 13.091354003252748 2 75.396298241917663 1 2 88.144061090344593 14.085485684047459 2 81.901461917409833 8.0949364522237062 2 80.804955943774544 5.7052549024460646 2 83.523272128724912 1 2 78.928596723079579 14.716848788160355 2 73.755921613323594 3.5351118459139568 2 89.315078497406574 8.624763836509814 2 79.403444190091676 10.642189795441194 2 84.923207293866923 10.825255349243253 2 88.996687153266222 10.950143363260503 2 79.163553907788568 3.6355088235869966 2 86.021605305760545 1.4000000000000004 2 82.510365694399042 15.780606569707333 2 76.427317699058889 3.7056240065733341 2 88.517171330851838 6.8379753609722211 2 75.435309858123603 11.745829489042618 2 82.152714781867175 10.714253527966601 2 85.766556040702156 13.668300284347524 2 82.381280861935053 3.4161616931990166 2 75.604111318294969 5.931912639834553 2 79.328759816897417 7.998387862518177 2 86.920976135648331 12.055097678503602 2 86.977073062150609 8.9610999500819233 2 76.922899589933408 7.8090441704025535 2 84.511863057039747 8.3183354171048816 2 </DataArray>
<DataArray Name="forces" NumberOfComponents="3" format="ascii" type="Float32">0.0026930993946612108 -0.0028068590576515334 0.0 -0.00049066566914065385 0.0095671607362098898 0.0 0.0031811434361246477 -0.0015401562086290086 0.0 0.00025917255677203853 4.8530603531203337e-05 0.0 0.0042674270128447156 -0.021511350143907156 0.0 0.0013838562928911655 -0.0063462971166719229 0.0 0.0049283133941584976 -0.01774185558972724 0.0 0.0066543882280085016 -0.031976299048501959 0.0 0.0 0.0 0.0 0.0 0.0 0.0 0.0018737528974822407 -0.0077741399802614339 0.0 -0.0079456027898971594 -0.020690322508348027 0.0 -0.0021494046206515503 -0.0087239521859288991 0.0 -0.0051988948672359453 -0.26566531599630505 0.0 -0.10397674074251742 0.077235189396115914 0.0 -0.02349196259884552 -0.013791530365683482 0.0 -0.018805980459205077 -0.0072833754014972078 0.0 -0.010529327438827384 -0.020516777041848202 0.0 -0.018842468740186462 0.021098212479140795 0.0 -0.015329010038426509 0.074398165115807879 0.0 -0.004294144377015599 -0.24999164866763174 0.0 0.025770917936978374 0.038063259654324798 0.0 -0.024023777049549753 0.037208230095943581 0.0 -0.021287960205906925 -0.096759111874954007 0.0 -0.020130785617097295 -0.16828225162553856 0.0 0.015733993502510424 0.043334111125668553 0.0 -0.00059445863665357618 -0.0024844841621149217 0.0 0.012050248902978273 0.019906392925168055 0.0 -0.121214634536425 0.050346555696595664 0.0 0.018817232103993425 0.035796503990286069 0.0 0.0 0.0 0.0 -0.0051758835910121065 0.023939344723884856 0.0 -0.063079818504857943 0.017099179751281258 0.0 0.0672918016980876 0.0054537974760350931 0.0 0.0072681659306991619 0.006883164446448431 0.0 0.017039328675953015 -0.054395454506634695 0.0 0.017441837258191064 0.033553953410842649 0.0 -0.043602256502839734 0.033580734547792562 0.0 -0.02528993707161227 -0.24517421904372724 0.0 -0.0057668523093349659 0.016313296256794077 0.0 0.066719581416929061 0.031864306115985314 0.0 -0.0054214815710586575 0.018012318395180985 0.0 -0.018662647758180481 0.031007217655044529 0.0 -0.011146005776455106 0.014347386346627121 0.0 0.015051622151734634 0.019936291853053636 0.0 0.072360080858792905 0.098841790639531454 0.0 -0.0087053301182350197 0.015784215990279696 0.0 0.099790308350142964 0.085413091587158124 0.0 0.028216906622601852 0.025837985758946073 0.0 -0.089974858969582988 0.019049745367886336 0.0 -0.083384804967025342 0.075849973576288615 0.0 0.1394982139109372 0.17217149075918289 0.0 </DataArray>
<DataArray Name="radii" format="ascii" type="Float32">1.1 1.1 1 1.2000000000000002 1 1 1 1.1 1 1.1 1.1 1.1 1 1.4000000000000004 1.4000000000000004 1 1 1.1 1 1.4000000000000004 1.4000000000000004 1.4000000000000004 1.4000000000000004 1.3000000000000003 1.4000000000000004 1.4000000000000004 1 1.4000000000000004 1.3000000000000003 1.4000000000000004 1 1 1.4000000000000004 1 1.4000000000000004 1.4000000000000004 1.4000000000000004 1.4000000000000004 1.4000000000000004 1.4000000000000004 1.4000000000000004 1 1 1.4000000000000004 1 1.4000000000000004 1 1.4000000000000004 1 1.4000000000000004 1 1.3000000000000003 </DataArray>
</PointData>
<CellData/>
</Piece>
</UnstructuredGrid>
</VTKFile>
