<?xml version="1.0" ?>
<VTKFile byte_order="LittleEndian" type="UnstructuredGrid" version="0.1">
<UnstructuredGrid>
<Piece NumberOfCells="0" NumberOfPoints="124">
<Points>
<DataArray NumberOfComponents="3" format="ascii" type="Float32">1.3600000000000003 7.4965219481583176 2 8.0973850358451678 1.3600000000000003 2 3.8264296870601848 8.6019240319166936 2 9.425166693728082 7.857442742937117 2 11.990461704014002 7.8145014025256341 2 15.541924616651547 9.6015826719134072 2 17.158810454648187 3.0850736561631589 2 22.97854021794581 5.2649246927848798 2 26.200995117571182 1.2100000000000002 2 27.604702813983121 9.0635985896905353 2 29.858648773599903 3.345887878653405 2 33.479783681361347 5.4097618807133214 2 39.605507653759204 6.1300793960187718 2 40.995341062225421 4.0001655343570928 2 45.264857473942413 3.4245817803754326 2 48.16552220839354 5.7736289818823874 2 51.948412391579595 5.0613984695189398 2 52.687398298027055 7.5167683864128039 2 57.421009128372695 7.3130792900791679 2 62.587300595864527 1.2100000000000002 2 60.924741980636 8.1038447501279212 2 64.948516013886589 5.8640748275162293 2 68.992320147718658 1.3600000000000003 2 71.622081650436584 9.2638868680094966 2 72.873744205982305 6.8794352734590927 2 76.190003501366277 10.723706584461233 2 89.69057269197836 5.633293627903023 2 91.26411240784094 3.6306292101103153 2 95.009740572821684 6.3873323988710204 2 96.09803953682632 8.8369115128101967 2 96.092371798130799 1.3820657900816311 2 1.3600000000000003 4.797954398024328 2 3.4234983442599987 3.1139938667841607 2 6.3559450287853414 7.6412879320173506 2 15.311621881134203 1.3600000000000003 2 14.594047356643706 7.0533745180536078 2 25.192683992248632 7.6809460004189871 2 28.31499075295881 6.4380842122487874 2 40.367185332819027 1.3600000000000003 2 41.100855207793195 8.2124839644028764 2 47.050536879171318 8.3347498854604893 2 54.989363396548775 6.1034001438668124 2 56.596363644963269 3.9501453443054255 2 63.89363735889237 3.388811429705934 2 66.269009771340791 8.8917567757639695 2 69.016739767895828 4.3713082413940274 2 70.591175976494725 11.765711877361388 2 73.281173823401829 11.396985472372616 2 91.858913217999969 10.517090691237941 2 94.516382156482067 11.037194405882483 2 96.051736472780959 4.0868462449231693 2 98.64 9.0398190815048753 2 10.627049374797354 1.2100000000000002 2 19.434088447200114 5.9777914615963184 2 27.5064120190967 3.7821960724363404 2 32.25668774954034 3.348426099859537 2 37.45615259405249 7.1979039455535743 2 36.316660867300925 5.0191492660527999 2 47.808440521304149 3.2338406739824266 2 58.995152944620017 3.2123774670287832 2 72.428830295634157 1.2100000000000002 2 91.687840732313049 1.2100000000000002 2 3.8885296683567581 5.7909775071194147 2 8.1589089349182888 5.6275382474509303 2 5.9773133724716407 4.0205407139910303 2 12.081321552250126 3.408632301294416 2 17.850837151556178 8.1650521130581524 2 24.325259967539825 2.9077995273452282 2 30.667095906804718 8.3830128834917748 2 42.910657393844467 2.1235237654652606 2 45.473040963222573 6.1251917998431624 2 49.990642751930118 7.7809070859293668 2 53.944653711068959 3.4677190865885357 2 59.59037945607578 5.6985535546855823 2 62.279124752052113 5.7529382208968363 2 67.5027102644097 6.5310148508976393 2 66.563111620145946 3.3269135014094759 2 70.095828517725792 7.1068846334056692 2 74.308596675726349 8.894127046881378 2 88.637044664669432 3.1504025653066439 2 91.06446906162715 7.8939640599942233 2 97.211754232250357 11.341032928821644 2 98.64 1.3600000000000003 2 1.3600000000000003 1.3600000000000003 2 5.4236931621512019 1.3600000000000003 2 7.3053506116688078 10.185824228755568 2 14.719848642682191 4.0116474878645434 2 16.897782122407687 5.6259523650006251 2 25.071928746415001 10.388332490515136 2 30.926239792790938 5.6779969055609989 2 37.714001121959633 1.4200719732584128 2 42.759739109255015 6.0587873005326784 2 44.059718236928113 8.4456786383642655 2 55.077551354491689 8.8146748896921974 2 55.69928699219242 1.3942028891201588 2 63.637039889000441 8.2378091712071875 2 65.524746290781991 11.479270684158989 2 68.911609391347113 9.5391699191015515 2 68.009435294487361 12.568744390833507 2 72.268339319114176 13.901034679833067 2 92.215042958850177 14.752804089690189 2 93.574093203306859 8.4660857685791839 2 97.567093731827867 6.5464754540698893 2 98.64 4.0632858576747806 2 10.721731481176741 5.5829623878740291 2 18.702917181051902 1.2105954872892162 2 28.585801804234734 1.2100000000000002 2 30.96513135092647 1.2100000000000002 2 35.049950398829999 7.2244606018301427 2 38.441281365633294 3.8743074186984185 2 50.208818996926091 3.3979883961634387 2 61.370758990444116 3.360883082884405 2 71.496597460596149 5.0268573607146818 2 92.677466093909814 5.7663822695508768 2 9.5291661867252984 3.4728230150788599 2 19.49585515961914 3.5673530340831188 2 25.539823167863783 5.1539159509644294 2 33.332526676464248 1.2100000000000002 2 36.273432478669847 9.3053686164156915 2 34.719355091383541 3.2021537371649917 2 49.177796391680275 1.2167686649624854 2 60.279607708084079 1.2100000000000002 2 70.923339713183154 2.8288444460849407 2 93.71206196149295 3.3600594730447852 2 </DataArray>
</Points>
<Cells>
<DataArray Name="connectivity" format="ascii" type="Int32">0</DataArray>
<DataArray Name="offsets" format="ascii" type="Int32">0</DataArray>
<DataArray Name="types" format="ascii" type="UInt8">1</DataArray>
</Cells>
<PointData>
<DataArray Name="Points" NumberOfComponents="3" format="ascii" type="Float32">1.3600000000000003 7.4965219481583176 2 8.0973850358451678 1.3600000000000003 2 3.8264296870601848 8.6019240319166936 2 9.425166693728082 7.857442742937117 2 11.990461704014002 7.8145014025256341 2 15.541924616651547 9.6015826719134072 2 17.158810454648187 3.0850736561631589 2 22.97854021794581 5.2649246927848798 2 26.200995117571182 1.2100000000000002 2 27.604702813983121 9.0635985896905353 2 29.858648773599903 3.345887878653405 2 33.479783681361347 5.4097618807133214 2 39.605507653759204 6.1300793960187718 2 40.995341062225421 4.0001655343570928 2 45.264857473942413 3.4245817803754326 2 48.16552220839354 5.7736289818823874 2 51.948412391579595 5.0613984695189398 2 52.687398298027055 7.5167683864128039 2 57.421009128372695 7.3130792900791679 2 62.587300595864527 1.2100000000000002 2 60.924741980636 8.1038447501279212 2 64.948516013886589 5.8640748275162293 2 68.992320147718658 1.3600000000000003 2 71.622081650436584 9.2638868680094966 2 72.873744205982305 6.8794352734590927 2 76.190003501366277 10.723706584461233 2 89.69057269197836 5.633293627903023 2 91.26411240784094 3.6306292101103153 2 95.009740572821684 6.3873323988710204 2 96.09803953682632 8.8369115128101967 2 96.092371798130799 1.3820657900816311 2 1.3600000000000003 4.797954398024328 2 3.4234983442599987 3.1139938667841607 2 6.3559450287853414 7.6412879320173506 2 15.311621881134203 1.3600000000000003 2 14.594047356643706 7.0533745180536078 2 25.192683992248632 7.6809460004189871 2 28.31499075295881 6.4380842122487874 2 40.367185332819027 1.3600000000000003 2 41.100855207793195 8.2124839644028764 2 47.050536879171318 8.3347498854604893 2 54.989363396548775 6.1034001438668124 2 56.596363644963269 3.9501453443054255 2 63.89363735889237 3.388811429705934 2 66.269009771340791 8.8917567757639695 2 69.016739767895828 4.3713082413940274 2 70.591175976494725 11.765711877361388 2 73.281173823401829 11.396985472372616 2 91.858913217999969 10.517090691237941 2 94.516382156482067 11.037194405882483 2 96.051736472780959 4.0868462449231693 2 98.64 9.0398190815048753 2 10.627049374797354 1.2100000000000002 2 19.434088447200114 5.9777914615963184 2 27.5064120190967 3.7821960724363404 2 32.25668774954034 3.348426099859537 2 37.45615259405249 7.1979039455535743 2 36.316660867300925 5.0191492660527999 2 47.808440521304149 3.2338406739824266 2 58.995152944620017 3.2123774670287832 2 72.428830295634157 1.2100000000000002 2 91.687840732313049 1.2100000000000002 2 3.8885296683567581 5.7909775071194147 2 8.1589089349182888 5.6275382474509303 2 5.9773133724716407 4.0205407139910303 2 12.081321552250126 3.408632301294416 2 17.850837151556178 8.1650521130581524 2 24.325259967539825 2.9077995273452282 2 30.667095906804718 8.3830128834917748 2 42.910657393844467 2.1235237654652606 2 45.473040963222573 6.1251917998431624 2 49.990642751930118 7.7809070859293668 2 53.944653711068959 3.4677190865885357 2 59.59037945607578 5.6985535546855823 2 62.279124752052113 5.7529382208968363 2 67.5027102644097 6.5310148508976393 2 66.563111620145946 3.3269135014094759 2 70.095828517725792 7.1068846334056692 2 74.308596675726349 8.894127046881378 2 88.637044664669432 3.1504025653066439 2 91.06446906162715 7.8939640599942233 2 97.211754232250357 11.341032928821644 2 98.64 1.3600000000000003 2 1.3600000000000003 1.3600000000000003 2 5.4236931621512019 1.3600000000000003 2 7.3053506116688078 10.185824228755568 2 14.719848642682191 4.0116474878645434 2 16.897782122407687 5.6259523650006251 2 25.071928746415001 10.388332490515136 2 30.926239792790938 5.6779969055609989 2 37.714001121959633 1.4200719732584128 2 42.759739109255015 6.0587873005326784 2 44.059718236928113 8.4456786383642655 2 55.077551354491689 8.8146748896921974 2 55.69928699219242 1.3942028891201588 2 63.637039889000441 8.2378091712071875 2 65.524746290781991 11.479270684158989 2 68.911609391347113 9.5391699191015515 2 68.009435294487361 12.568744390833507 2 72.268339319114176 13.901034679833067 2 92.215042958850177 14.752804089690189 2 93.574093203306859 8.4660857685791839 2 97.567093731827867 6.5464754540698893 2 98.64 4.0632858576747806 2 10.721731481176741 5.5829623878740291 2 18.702917181051902 1.2105954872892162 2 28.585801804234734 1.2100000000000002 2 30.96513135092647 1.2100000000000002 2 35.049950398829999 7.2244606018301427 2 38.441281365633294 3.8743074186984185 2 50.208818996926091 3.3979883961634387 2 61.370758990444116 3.360883082884405 2 71.496597460596149 5.0268573607146818 2 92.677466093909814 5.7663822695508768 2 9.5291661867252984 3.4728230150788599 2 19.49585515961914 3.5673530340831188 2 25.539823167863783 5.1539159509644294 2 33.332526676464248 1.2100000000000002 2 36.273432478669847 9.3053686164156915 2 34.719355091383541 3.2021537371649917 2 49.177796391680275 1.2167686649624854 2 60.279607708084079 1.2100000000000002 2 70.923339713183154 2.8288444460849407 2 93.71206196149295 3.3600594730447852 2 </DataArray>
<DataArray Name="forces" NumberOfComponents="3" format="ascii" type="Float32">-0.016046615826061858 0.014662354489559423 0.0 0.00059380991051470079 -0.012995005603420593 0.0 0.0024069983809618806 0.012362971944554574 0.0 -0.0015245699216376533 0.0051759577176205343 0.0 -0.0012790909372769499 0.0048004836472621461 0.0 -0.00016320839109122324 0.0015208710148635961 0.0 -0.00024568074779170168 0.0066318027116912242 0.0 -0.0036415426790634355 0.0030698657108688778 0.0 -0.0055831991062285612 -0.026758251425298238 0.0 -2.8197595792852348e-05 0.00010421375575425853 0.0 -0.0036412999450943593 0.0032631626481922204 0.0 0.00094319004425679441 0.0043880694849769662 0.0 -0.00033988207297430684 0.0084314240311937731 0.0 -0.0042889160010005176 0.0046430363099001261 0.0 0.0062944273487223765 0.0047888995127872355 0.0 0.00069982977951870903 -0.00050482954380580859 0.0 -0.004564910413045532 0.013467463281484982 0.0 -0.0040736386911882777 0.014546803826914079 0.0 -0.0095965147845013792 0.011707600720376974 0.0 -0.0031739105397150663 -0.018433038040022841 0.0 -0.0083552312011271578 0.00528172858181196 0.0 -0.0022074582703133444 0.0070404009002831489 0.0 -0.006782201091626916 -0.07309914097702172 0.0 -0.079153053990088387 -0.045095826172304579 0.0 -0.00081978821573005611 -0.0043025548533189928 0.0 -0.0098980104532792948 -0.039543795606415813 0.0 0.062702120117553217 -0.064060318072486175 0.0 -0.04947110108140261 0.037268761934891342 0.0 -0.0087498195791142451 0.016068536030556774 0.0 -0.017850166306950809 0.0089014945380927468 0.0 0.00048906662557143821 0.0096174317452210247 0.0 -0.048061034115976627 0.013312603704072825 0.0 -0.0020479651479076155 0.0050428712329274317 0.0 0.00045441178538835705 0.0039365942904740102 0.0 0.0042528764644376386 -0.028691358391844422 0.0 -0.0016623663562358275 0.0020032447753665309 0.0 -0.0022206868991491986 0.0093415532707996751 0.0 -0.0003463798142863583 4.9358574569754782e-06 0.0 0.0030073706999441396 -0.026930732334907826 0.0 0.0027345785127195817 0.0064538551927750439 0.0 0.0030223846089904079 0.0042360423952207005 0.0 -0.0079270885053245276 0.0080180513143011667 0.0 -0.0091234531810428787 0.0059001688036672455 0.0 -0.0079036790839031174 -0.0047963454615562876 0.0 -0.012335268045193073 0.022595953977429886 0.0 -0.014095502377358918 0.025476895435163072 0.0 -0.01505936424436507 0.022116624758651747 0.0 0.029200972322130387 0.10284640088871691 0.0 -0.0059088074616375948 0.02041717616764295 0.0 0.0064485026906448036 0.006442677412442731 0.0 -0.0057957130266907131 0.0030935647503632681 0.0 0.18412635234465655 0.010777329036192721 0.0 0.0019251630352941293 -0.00048871991729933684 0.0 0.003031796607237671 0.0063964782834137965 0.0 -0.0091443409175372553 -0.0079570561795044847 0.0 -0.0015931812895950328 0.0036313826380903434 0.0 -0.0026133444799127945 0.0059794993522012934 0.0 -0.0052612153173214873 0.0036433184401935179 0.0 0.0065731345478679641 -0.0024534818963753407 0.0 -0.0096088562271075643 0.00050705630466479218 0.0 -0.017405648709493293 -0.14328217426430379 0.0 0.0028494658821346386 -0.10081823424780866 0.0 0.0037982426303819418 0.0042443445466750756 0.0 0.0013891792419125915 0.0027336336848388376 0.0 0.0017021920635726215 -0.00040662042646227468 0.0 0.0034810735433506504 0.001669701080480643 0.0 0.0034273427556156025 0.0071898645316616416 0.0 0.00064131235949351287 0.0065338608855050329 0.0 -0.00026048319728127616 0.0027210331032684462 0.0 0.0016580319004943223 0.011361951593790907 0.0 0.00077546962014670329 0.0054681070935967239 0.0 -0.0055892592970119672 0.0064458842718167009 0.0 -0.011230863498947504 0.0025822987559681 0.0 -0.012723068439739235 0.0033500938254560852 0.0 -0.017005981985107086 0.0019982163318899137 0.0 -0.02392035994577435 0.022565872111040153 0.0 0.0050354098099044467 0.0027710928167449696 0.0 0.007364669740453425 0.053750903823430889 0.0 0.10353274246324862 -0.014347138302446681 0.0 0.019093210867065155 0.021174496725967294 0.0 -0.03703790600547216 0.015136856921010423 0.0 -0.00073913333899082966 0.010496409345445091 0.0 0.17214076056456551 -0.019539768938144915 0.0 -0.0093837100528986871 -0.0079664521890096523 0.0 -0.0019214177864859895 -0.042570745779403778 0.0 0.0014812024820712187 0.003971171227570112 0.0 0.0052855551132582387 0.00067488523928768088 0.0 0.0020362819979577087 0.007219909058641759 0.0 -0.00045440641595992625 0.010139939345358869 0.0 0.00038513840454049457 0.0023581830965820703 0.0 0.0005131238402642643 0.0047013350132883783 0.0 -0.00027804926501718598 0.0036568521420132852 0.0 -0.00043603280350832979 0.0044919177732525295 0.0 0.00056601049332483968 0.0073461110732477557 0.0 -0.0073235722360033614 0.0059749149930291394 0.0 -0.0059562762739374031 0.0057572502154193354 0.0 -0.015543699927666896 0.023658344228782338 0.0 0.0016822933429225743 0.00083523887921712811 0.0 -0.0028215276817033482 0.0067334272955959975 0.0 -0.0048980296334161198 -0.0014952618410841844 0.0 0.012420333147238225 0.01847854172642863 0.0 0.016515770316531536 -0.00088810434205680022 0.0 0.0068878601498843402 0.0020312346271335619 0.0 0.13872062965064813 0.0048527933497911676 0.0 0.0024387262126804327 0.0021160967218033771 0.0 -0.0023346210385675435 0.00022365135396797725 0.0 -0.005520640277417499 0.0 0.0 -0.0053211037570725789 -0.013491367029296467 0.0 -0.0034377811547059906 0.010500048196609943 0.0 -0.0040525252854385109 0.0061469297891410708 0.0 0.0077099677514770662 -0.0015958056176907862 0.0 -0.0022979759489203883 0.0015226845806184629 0.0 0.022090341846718681 -0.0091280126829421382 0.0 0.0014179425083059131 0.0071911496967411283 0.0 0.0017936543595678325 0.0012861963850130179 0.0 0.00074578333378268484 0.0061503975226122332 0.0 -0.0016021326376556323 0.0080717234779058237 0.0 -0.0039162984525504541 -0.017211139690931326 0.0 0.0015332889385172557 0.0083219251541396949 0.0 -0.00048112436089346597 -0.00054637706911707374 0.0 -0.0040723371537898252 0.0035293967387944915 0.0 -0.0091277435461945867 -0.038982162049021898 0.0 0.0067941875377230398 0.022578986039625909 0.0 0.01921400483778414 -0.00036983034607114551 0.0 </DataArray>
<DataArray Name="radii" format="ascii" type="Float32">1.3600000000000003 1.3600000000000003 1.3600000000000003 1.2100000000000002 1.3600000000000003 1.3600000000000003 1.2100000000000002 1.3600000000000003 1.2100000000000002 1.3600000000000003 1.2100000000000002 1.2100000000000002 1.2100000000000002 1.3600000000000003 1.3600000000000003 1.3600000000000003 1.2100000000000002 1.3600000000000003 1.3600000000000003 1.2100000000000002 1.3600000000000003 1.3600000000000003 1.3600000000000003 1.3600000000000003 1.2100000000000002 1.3600000000000003 1.3600000000000003 1.3600000000000003 1.2100000000000002 1.3600000000000003 1.3600000000000003 1.3600000000000003 1.3600000000000003 1.3600000000000003 1.3600000000000003 1.3600000000000003 1.3600000000000003 1.3600000000000003 1.3600000000000003 1.3600000000000003 1.3600000000000003 1.3600000000000003 1.3600000000000003 1.3600000000000003 1.3600000000000003 1.3600000000000003 1.3600000000000003 1.3600000000000003 1.3600000000000003 1.3600000000000003 1.3600000000000003 1.3600000000000003 1.2100000000000002 1.2100000000000002 1.2100000000000002 1.2100000000000002 1.2100000000000002 1.2100000000000002 1.2100000000000002 1.2100000000000002 1.2100000000000002 1.2100000000000002 1.3600000000000003 1.3600000000000003 1.3600000000000003 1.3600000000000003 1.3600000000000003 1.3600000000000003 1.3600000000000003 1.3600000000000003 1.3600000000000003 1.3600000000000003 1.3600000000000003 1.3600000000000003 1.3600000000000003 1.3600000000000003 1.3600000000000003 1.3600000000000003 1.3600000000000003 1.3600000000000003 1.3600000000000003 1.3600000000000003 1.3600000000000003 1.3600000000000003 1.3600000000000003 1.3600000000000003 1.3600000000000003 1.3600000000000003 1.3600000000000003 1.3600000000000003 1.3600000000000003 1.3600000000000003 1.3600000000000003 1.3600000000000003 1.3600000000000003 1.3600000000000003 1.3600000000000003 1.3600000000000003 1.3600000000000003 1.3600000000000003 1.3600000000000003 1.3600000000000003 1.3600000000000003 1.3600000000000003 1.2100000000000002 1.2100000000000002 1.2100000000000002 1.2100000000000002 1.2100000000000002 1.2100000000000002 1.2100000000000002 1.2100000000000002 1.2100000000000002 1.2100000000000002 1.2100000000000002 1.2100000000000002 1.2100000000000002 1.2100000000000002 1.2100000000000002 1.2100000000000002 1.2100000000000002 1.2100000000000002 1.2100000000000002 1.2100000000000002 </DataArray>
</PointData>
<CellData/>
</Piece>
</UnstructuredGrid>
</VTKFile>
