<?xml version="1.0" ?>
<VTKFile byte_order="LittleEndian" type="UnstructuredGrid" version="0.1">
<UnstructuredGrid>
<Piece NumberOfCells="0" NumberOfPoints="31">
<Points>
<DataArray NumberOfComponents="3" format="ascii" type="Float32">1.23 1.23 2 3.6998509705890825 1.23 2 5.7830822881117374 2.3902215766551715 2 7.7026659539404321 1.06 2 12.185356457971466 1.2333939385186754 2 14.367538632604742 2.2406146791154349 2 16.362337720832329 1.06 2 25.96985540191011 2.2573426653730051 2 27.933396749944873 1.06 2 29.768261169308946 2.3965117705245103 2 31.675086190121228 1.06 2 33.68121944130278 1.2765393955663489 2 37.754627815943039 1.06 2 40.135368330982601 1.3311266851996093 2 42.307368640615735 2.3073574046631546 2 48.177678849483897 2.3865679667145554 2 50.03301149771012 1.0601786162208293 2 53.855526118368317 2.3660630934960953 2 57.874127937194032 2.1854077386316884 2 62.097544315755506 1.06 2 66.130300133102836 2.480315886922885 2 69.666554729352285 2.2104822817757723 2 71.924429291807371 1.23 2 74.188337409606504 2.1719708883969933 2 76.19748901243328 1.06 2 77.899710949046749 2.5762331420698112 2 86.191452716398871 2.3060699620686926 2 89.948343628849997 2.0934697806269957 2 91.898251472071109 1.06 2 96.313886805882959 1.3834686908023253 2 98.77 1.23 2 </DataArray>
</Points>
<Cells>
<DataArray Name="connectivity" format="ascii" type="Int32">0</DataArray>
<DataArray Name="offsets" format="ascii" type="Int32">0</DataArray>
<DataArray Name="types" format="ascii" type="UInt8">1</DataArray>
</Cells>
<PointData>
<DataArray Name="Points" NumberOfComponents="3" format="ascii" type="Float32">1.23 1.23 2 3.6998509705890825 1.23 2 5.7830822881117374 2.3902215766551715 2 7.7026659539404321 1.06 2 12.185356457971466 1.2333939385186754 2 14.367538632604742 2.2406146791154349 2 16.362337720832329 1.06 2 25.96985540191011 2.2573426653730051 2 27.933396749944873 1.06 2 29.768261169308946 2.3965117705245103 2 31.675086190121228 1.06 2 33.68121944130278 1.2765393955663489 2 37.754627815943039 1.06 2 40.135368330982601 1.3311266851996093 2 42.307368640615735 2.3073574046631546 2 48.177678849483897 2.3865679667145554 2 50.03301149771012 1.0601786162208293 2 53.855526118368317 2.3660630934960953 2 57.874127937194032 2.1854077386316884 2 62.097544315755506 1.06 2 66.130300133102836 2.480315886922885 2 69.666554729352285 2.2104822817757723 2 71.924429291807371 1.23 2 74.188337409606504 2.1719708883969933 2 76.19748901243328 1.06 2 77.899710949046749 2.5762331420698112 2 86.191452716398871 2.3060699620686926 2 89.948343628849997 2.0934697806269957 2 91.898251472071109 1.06 2 96.313886805882959 1.3834686908023253 2 98.77 1.23 2 </DataArray>
<DataArray Name="forces" NumberOfComponents="3" format="ascii" type="Float32">-0.04993553923720917 0.0 0.0 0.04993553923720917 0.0 0.0 -0.037180891005794969 0.026377083110311221 0.0 0.037180891005794969 -0.026377083110311221 0.0 0.050128393909504104 0.0028347222569172713 0.0 -0.022238732154169542 0.013339970850358781 0.0 0.022238732154169542 -0.013339970850358781 0.0 -0.0078294406520494474 0.0047971957314204717 0.0 0.0078294406520494474 -0.0047971957314204717 0.0 -0.031623764817186102 0.022614433935836648 0.0 0.031623764817186102 -0.022614433935836648 0.0 -0.083523088038247706 0.011222531734445897 0.0 -0.076202234543804259 -0.0089192369540098612 0.0 0.076202234543804259 0.0089192369540098612 0.0 -0.024142357630136387 0.017401245823275287 0.0 0.011699348747745638 0.0077244296462368233 0.0 -0.0051071627363618788 0.00014918578337380989 0.0 9.4672437294733591e-05 0.0013230845683290023 0.0 0.004689123603867815 0.0024671810817688735 0.0 0.01009467013707979 -0.00018784875527563599 0.0 0.004043408843443945 0.0041827805704842862 0.0 -0.0012565664934793205 0.0034734104143642206 0.0 0.0026122594723580143 -0.0022834440397418647 0.0 -0.004908712478311675 0.0040389311144858504 0.0 0.0057521776262404491 -0.0039287719696802972 0.0 -0.014579866921400673 0.010797946829434935 0.0 -0.0078569986878889407 0.0056699213867736874 0.0 0.014298161692450465 0.0083664414641226887 0.0 -0.067774689690835027 -0.0014621504714963885 0.0 -0.050952682158096847 0.004831572745652441 0.0 0.060227902992074887 -0.0037136917701594205 0.0 </DataArray>
<DataArray Name="radii" format="ascii" type="Float32">1.23 1.23 1.23 1.06 1.23 1.23 1.06 1.23 1.06 1.23 1.06 1.06 1.06 1.23 1.23 1.23 1.06 1.23 1.23 1.06 1.23 1.23 1.23 1.23 1.06 1.23 1.23 1.23 1.06 1.23 1.23 </DataArray>
</PointData>
<CellData/>
</Piece>
</UnstructuredGrid>
</VTKFile>
