<?xml version="1.0" ?>
<VTKFile byte_order="LittleEndian" type="UnstructuredGrid" version="0.1">
<UnstructuredGrid>
<Piece NumberOfCells="0" NumberOfPoints="23">
<Points>
<DataArray NumberOfComponents="3" format="ascii" type="Float32">10.523999227559802 1.1 2 18.842445773549414 2.6544730952876741 2 20.135835446011288 1 2 21.998195267241581 2.1713978485133238 2 23.860451812165191 1 2 35.308784639942786 1 2 44.188372772065208 1 2 46.286748447582717 1.1022872389737677 2 52.515372351179479 1 2 54.904955353289274 1.1 2 59.532799922592865 1.1 2 64.530519855442932 1.1 2 67.674904105028347 1 2 80.805880776123828 1.2000000000000002 2 83.207216321284804 1.2011039318479819 2 85.398861267489707 1 2 87.948672695848984 1 2 94.027872105619693 1.1 2 79.174149720743785 4.5309687909298653 2 82.32684604599747 5.6693449774202076 2 78.436563029905628 1.5979768543891562 2 83.589319293919743 3.5705489277939724 2 81.155766353888382 3.5744557810041737 2 </DataArray>
</Points>
<Cells>
<DataArray Name="connectivity" format="ascii" type="Int32">0</DataArray>
<DataArray Name="offsets" format="ascii" type="Int32">0</DataArray>
<DataArray Name="types" format="ascii" type="UInt8">1</DataArray>
</Cells>
<PointData>
<DataArray Name="Points" NumberOfComponents="3" format="ascii" type="Float32">10.523999227559802 1.1 2 18.842445773549414 2.6544730952876741 2 20.135835446011288 1 2 21.998195267241581 2.1713978485133238 2 23.860451812165191 1 2 35.308784639942786 1 2 44.188372772065208 1 2 46.286748447582717 1.1022872389737677 2 52.515372351179479 1 2 54.904955353289274 1.1 2 59.532799922592865 1.1 2 64.530519855442932 1.1 2 67.674904105028347 1 2 80.805880776123828 1.2000000000000002 2 83.207216321284804 1.2011039318479819 2 85.398861267489707 1 2 87.948672695848984 1 2 94.027872105619693 1.1 2 79.174149720743785 4.5309687909298653 2 82.32684604599747 5.6693449774202076 2 78.436563029905628 1.5979768543891562 2 83.589319293919743 3.5705489277939724 2 81.155766353888382 3.5744557810041737 2 </DataArray>
<DataArray Name="forces" NumberOfComponents="3" format="ascii" type="Float32">-0.048363623091836588 -0.017726703058315231 0.0 0.0 0.0 0.0 0.0 0.0 0.0 -4.6270541344821111e-05 2.910584986547036e-05 0.0 4.6270541344821111e-05 -2.910584986547036e-05 0.0 0.0 0.0 0.0 0.0 0.0 0.0 0.0 0.0 0.0 0.0 0.0 0.0 0.0 0.0 0.0 0.0 0.0 0.0 0.0 0.0 0.0 0.0 0.0 0.0 0.0025444293976454521 -0.00042785004714108966 0.0 -9.029411910893306e-06 -5.5991961331955074e-05 0.0 0.0 0.0 0.0 0.0 0.0 0.0 0.0 0.0 0.0 -0.00035344754559337485 0.00017060256702135579 0.0 1.0329478305330048e-05 1.8470836299629416e-05 0.0 -0.0025444293976454521 0.00042785004714108966 0.0 9.029411910893306e-06 5.5991961331955074e-05 0.0 0.00034311806728804482 -0.00018907340332098519 0.0 </DataArray>
<DataArray Name="radii" format="ascii" type="Float32">1.1 1.1 1 1.2000000000000002 1 1 1 1.1 1 1.1 1.1 1.1 1 1.2000000000000002 1.2000000000000002 1 1 1.1 1 1.2000000000000002 1.2000000000000002 1.2000000000000002 1.2000000000000002 </DataArray>
</PointData>
<CellData/>
</Piece>
</UnstructuredGrid>
</VTKFile>
