<?xml version="1.0" ?>
<VTKFile byte_order="LittleEndian" type="UnstructuredGrid" version="0.1">
<UnstructuredGrid>
<Piece NumberOfCells="0" NumberOfPoints="124">
<Points>
<DataArray NumberOfComponents="3" format="ascii" type="Float32">1.3000000000000003 6.7123572661403763 2 8.0730047252904598 1.3000000000000003 2 4.0557848109877224 7.8865244306521403 2 9.1478477227863717 7.2925439468456146 2 12.239551856668223 6.9477896031536464 2 15.566262610286937 9.2164797907659928 2 17.05510423424386 2.6694964115641926 2 23.444247082086932 5.2035487462460539 2 26.135848087855823 1.1500000000000001 2 27.639456649427846 8.8327662783005358 2 29.947364386569465 3.0357300191136214 2 33.283825458003811 5.2688024751562388 2 39.501374152368932 5.7532509610666986 2 40.94690564009111 3.8022069878095746 2 45.363110721704096 3.2256091374331475 2 47.909438517863492 5.5563157143626238 2 52.147655139863936 4.226310381303402 2 53.022261106735534 6.5060600401470943 2 57.949577075278633 6.4564391430389687 2 62.882789398759613 1.1551682860875543 2 61.444086406202068 7.728361798771255 2 65.322823949815501 5.5625051299261035 2 69.311463776120902 1.3000000000000003 2 72.010632505368662 8.6083172667612669 2 73.140619338424003 6.3310906620211318 2 76.687099181368183 10.627658183804552 2 89.442524153426021 5.2956886448450806 2 91.137593276169227 3.3875996240544231 2 94.819508369281621 5.9055904899186418 2 96.08457030255687 8.1714014443106926 2 96.271638745298162 1.3000000000000003 2 1.3000000000000003 4.1253414855919175 2 3.4338444677233988 2.741324889507232 2 6.5872061671724653 7.3115187565870237 2 15.061721327479585 1.3000000000000003 2 14.80863770007609 6.7389563481975143 2 25.364718670561086 7.0481466936894703 2 28.495664696166955 6.3829174287747179 2 40.295431212813448 1.3000000000000003 2 41.04789825257798 7.6469323155718332 2 46.850162996782721 7.9244918206629951 2 55.481558230728588 5.7003697655459638 2 57.060346530519958 3.6540041008814153 2 64.121593723474518 3.2775285570915584 2 66.603799088453229 8.1929239856085818 2 69.216640184754183 3.8198392744673026 2 70.980217388894914 10.962382793041312 2 73.561098862294031 10.700414435630956 2 91.92012077823172 9.9545286689815153 2 94.473175515453335 10.412115312559521 2 96.12227349354643 3.8629729342572277 2 98.7 8.4728172492393377 2 10.484443247337524 1.1500000000000001 2 19.106551390474216 5.6074911885909993 2 27.931849403330492 4.0056057902896542 2 32.320709271517011 3.1846437209966805 2 37.430751226415744 6.710199678292601 2 36.411344354011248 4.5775754184268589 2 47.806762986011876 3.1276932337185723 2 59.414100492110208 3.0737316012255897 2 73.126992755924462 1.1500000000000001 2 91.947840436887645 1.1500000000000001 2 3.5891455352478174 5.3343968836528823 2 7.99431532978058 5.1379532407298196 2 5.7432017453605662 3.8863957535968425 2 11.948351665585022 3.3776862441452136 2 17.559736474799461 7.5303506218371945 2 24.282974587835255 2.7474786115703491 2 30.705276430281373 7.8683518032854405 2 42.77987429674387 1.9835548387575348 2 45.328131952891475 5.8185240935644771 2 49.81625941923167 7.3119774267086646 2 54.413458213320268 3.3423618743693733 2 60.259371371298798 5.3402100700389497 2 62.795926348145187 5.5118275528409209 2 67.803396909481265 5.9162966909471617 2 66.708999609237665 3.257646612499586 2 70.06440126612938 7.0311298202926498 2 74.548214507119781 8.3124080352676959 2 87.976547897018605 3.2220628078808899 2 91.106141248818275 7.2427692314808638 2 97.046538584044768 10.561681889956921 2 98.7 1.3000000000000003 2 1.3000000000000003 1.3000000000000003 2 5.5248146190793896 1.3000000000000003 2 7.198182561490551 9.8345361539475356 2 14.489198184479553 3.8310845567764691 2 16.756243336525557 5.0651807570196601 2 25.165044468443075 9.6316744224326971 2 30.846625510444209 5.2843241692071903 2 37.728569505051567 1.3112856989331729 2 42.738655219127558 5.6745158491270189 2 44.003327667223388 8.0523119616570984 2 54.972706967589751 8.2420184932375289 2 55.985935151330011 1.3000000000000003 2 64.038840542304257 7.8182194508138334 2 66.242839173715637 10.752848409163194 2 68.935528076013469 9.3368919537629171 2 68.569533225634828 11.901590846367954 2 72.868203931430273 13.170434311183428 2 91.380946713929646 13.858707975555058 2 93.567010539214778 7.9502336260904682 2 97.606647820067465 6.1230952248228014 2 98.7 3.8377335877451322 2 10.421454696960309 5.3379177905856929 2 18.733613348535492 1.1500000000000001 2 28.434473675305124 1.1500000000000001 2 31.129025840485752 1.1500000000000001 2 35.14695858539919 6.594917073870227 2 38.505481493884567 3.6302543471351738 2 50.086430029316205 3.2535701749782286 2 61.69772486752305 3.1939623921805556 2 71.309136475628804 4.988628765995414 2 92.614424439855938 5.3162820135138906 2 9.5219357177048494 3.2375789825559718 2 19.457078736361879 3.3326990622405397 2 25.788795942624098 4.6527768297351004 2 33.387412419734908 1.1500000000000001 2 36.203991103246409 8.649934764083584 2 34.711252127543652 3.0296601799725353 2 49.175033206669951 1.1500000000000001 2 60.615402665824945 1.1500000000000001 2 71.305614511772063 2.5397126259069709 2 93.732936285963035 3.3218752128015745 2 </DataArray>
</Points>
<Cells>
<DataArray Name="connectivity" format="ascii" type="Int32">0</DataArray>
<DataArray Name="offsets" format="ascii" type="Int32">0</DataArray>
<DataArray Name="types" format="ascii" type="UInt8">1</DataArray>
</Cells>
<PointData>
<DataArray Name="Points" NumberOfComponents="3" format="ascii" type="Float32">1.3000000000000003 6.7123572661403763 2 8.0730047252904598 1.3000000000000003 2 4.0557848109877224 7.8865244306521403 2 9.1478477227863717 7.2925439468456146 2 12.239551856668223 6.9477896031536464 2 15.566262610286937 9.2164797907659928 2 17.05510423424386 2.6694964115641926 2 23.444247082086932 5.2035487462460539 2 26.135848087855823 1.1500000000000001 2 27.639456649427846 8.8327662783005358 2 29.947364386569465 3.0357300191136214 2 33.283825458003811 5.2688024751562388 2 39.501374152368932 5.7532509610666986 2 40.94690564009111 3.8022069878095746 2 45.363110721704096 3.2256091374331475 2 47.909438517863492 5.5563157143626238 2 52.147655139863936 4.226310381303402 2 53.022261106735534 6.5060600401470943 2 57.949577075278633 6.4564391430389687 2 62.882789398759613 1.1551682860875543 2 61.444086406202068 7.728361798771255 2 65.322823949815501 5.5625051299261035 2 69.311463776120902 1.3000000000000003 2 72.010632505368662 8.6083172667612669 2 73.140619338424003 6.3310906620211318 2 76.687099181368183 10.627658183804552 2 89.442524153426021 5.2956886448450806 2 91.137593276169227 3.3875996240544231 2 94.819508369281621 5.9055904899186418 2 96.08457030255687 8.1714014443106926 2 96.271638745298162 1.3000000000000003 2 1.3000000000000003 4.1253414855919175 2 3.4338444677233988 2.741324889507232 2 6.5872061671724653 7.3115187565870237 2 15.061721327479585 1.3000000000000003 2 14.80863770007609 6.7389563481975143 2 25.364718670561086 7.0481466936894703 2 28.495664696166955 6.3829174287747179 2 40.295431212813448 1.3000000000000003 2 41.04789825257798 7.6469323155718332 2 46.850162996782721 7.9244918206629951 2 55.481558230728588 5.7003697655459638 2 57.060346530519958 3.6540041008814153 2 64.121593723474518 3.2775285570915584 2 66.603799088453229 8.1929239856085818 2 69.216640184754183 3.8198392744673026 2 70.980217388894914 10.962382793041312 2 73.561098862294031 10.700414435630956 2 91.92012077823172 9.9545286689815153 2 94.473175515453335 10.412115312559521 2 96.12227349354643 3.8629729342572277 2 98.7 8.4728172492393377 2 10.484443247337524 1.1500000000000001 2 19.106551390474216 5.6074911885909993 2 27.931849403330492 4.0056057902896542 2 32.320709271517011 3.1846437209966805 2 37.430751226415744 6.710199678292601 2 36.411344354011248 4.5775754184268589 2 47.806762986011876 3.1276932337185723 2 59.414100492110208 3.0737316012255897 2 73.126992755924462 1.1500000000000001 2 91.947840436887645 1.1500000000000001 2 3.5891455352478174 5.3343968836528823 2 7.99431532978058 5.1379532407298196 2 5.7432017453605662 3.8863957535968425 2 11.948351665585022 3.3776862441452136 2 17.559736474799461 7.5303506218371945 2 24.282974587835255 2.7474786115703491 2 30.705276430281373 7.8683518032854405 2 42.77987429674387 1.9835548387575348 2 45.328131952891475 5.8185240935644771 2 49.81625941923167 7.3119774267086646 2 54.413458213320268 3.3423618743693733 2 60.259371371298798 5.3402100700389497 2 62.795926348145187 5.5118275528409209 2 67.803396909481265 5.9162966909471617 2 66.708999609237665 3.257646612499586 2 70.06440126612938 7.0311298202926498 2 74.548214507119781 8.3124080352676959 2 87.976547897018605 3.2220628078808899 2 91.106141248818275 7.2427692314808638 2 97.046538584044768 10.561681889956921 2 98.7 1.3000000000000003 2 1.3000000000000003 1.3000000000000003 2 5.5248146190793896 1.3000000000000003 2 7.198182561490551 9.8345361539475356 2 14.489198184479553 3.8310845567764691 2 16.756243336525557 5.0651807570196601 2 25.165044468443075 9.6316744224326971 2 30.846625510444209 5.2843241692071903 2 37.728569505051567 1.3112856989331729 2 42.738655219127558 5.6745158491270189 2 44.003327667223388 8.0523119616570984 2 54.972706967589751 8.2420184932375289 2 55.985935151330011 1.3000000000000003 2 64.038840542304257 7.8182194508138334 2 66.242839173715637 10.752848409163194 2 68.935528076013469 9.3368919537629171 2 68.569533225634828 11.901590846367954 2 72.868203931430273 13.170434311183428 2 91.380946713929646 13.858707975555058 2 93.567010539214778 7.9502336260904682 2 97.606647820067465 6.1230952248228014 2 98.7 3.8377335877451322 2 10.421454696960309 5.3379177905856929 2 18.733613348535492 1.1500000000000001 2 28.434473675305124 1.1500000000000001 2 31.129025840485752 1.1500000000000001 2 35.14695858539919 6.594917073870227 2 38.505481493884567 3.6302543471351738 2 50.086430029316205 3.2535701749782286 2 61.69772486752305 3.1939623921805556 2 71.309136475628804 4.988628765995414 2 92.614424439855938 5.3162820135138906 2 9.5219357177048494 3.2375789825559718 2 19.457078736361879 3.3326990622405397 2 25.788795942624098 4.6527768297351004 2 33.387412419734908 1.1500000000000001 2 36.203991103246409 8.649934764083584 2 34.711252127543652 3.0296601799725353 2 49.175033206669951 1.1500000000000001 2 60.615402665824945 1.1500000000000001 2 71.305614511772063 2.5397126259069709 2 93.732936285963035 3.3218752128015745 2 </DataArray>
<DataArray Name="forces" NumberOfComponents="3" format="ascii" type="Float32">0.0 0.013195218506898421 0.0 -0.00037844145809507596 -0.022851247214705793 0.0 -0.0033995381195994117 0.006664748115612542 0.0 0.0028607396921337879 0.0053453358182238885 0.0 -0.0063359131068324789 0.017070810298859151 0.0 0.0028233718678288963 0.0092877731804058058 0.0 0.0039540926210691538 0.0065621848901972028 0.0 -0.0067313286697910577 -0.00054742268891458737 0.0 0.0013486614294253452 -0.0023734238351592542 0.0 -0.0017073950500467591 0.0048852878851721763 0.0 0.0070862870867854089 0.0096929263835032892 0.0 0.0038394947876086109 -0.0041040872580524711 0.0 0.0010839142020176058 0.0059306966980573195 0.0 0.00055370700077591239 0.0031690213357057975 0.0 -0.0020746247384913503 0.0032897225075302792 0.0 0.0027877307147787011 0.0083612325052225787 0.0 -0.00077648115237899037 0.0080557049639423308 0.0 -0.008568154538755415 0.011950131512991315 0.0 -0.01311122022674845 0.02102508310524848 0.0 -0.014411900472368948 0.001247090160302214 0.0 -0.0067784706248388317 0.0039979983010415962 0.0 -0.0091449099910517351 0.0012716508426543964 0.0 -0.014208462840334876 -0.13086783298747939 0.0 -0.037373238795942232 0.010307657283149665 0.0 -0.014192706613876569 -0.0045146015903176403 0.0 0.0046794841057260506 0.020427549638001804 0.0 -0.0039326346743250237 0.02485502227157832 0.0 -0.0013449886383992797 0.010585018692759452 0.0 -0.0028686023293583943 0.020599276893714775 0.0 0.0026033601624111322 0.025222304671376945 0.0 -0.0059576692366942463 -0.01456490242624876 0.0 -0.059173543549889719 0.01282588089701249 0.0 -0.0017639590154423165 0.0053460589552817087 0.0 -0.0030454800540805193 0.0045557129867698862 0.0 0.0055840981907111032 -0.020840604627480823 0.0 -0.0046111582700887437 0.01067068834392065 0.0 -0.0023858945112642509 0.0085125954889884673 0.0 -0.0015261338294243303 0.0043287202289197853 0.0 0.0072207821066895689 -0.021189580037570176 0.0 0.0018562781248838527 0.0058298675150694973 0.0 -0.0013325370774153636 0.0068322002706926472 0.0 -0.010132771626931578 0.0059011063441276133 0.0 -0.010107446105194293 0.0052278576222254862 0.0 -0.012594740744867831 0.002132566429868565 0.0 -0.0067769975789532862 0.012096480062449028 0.0 -0.021058065523865944 0.004168697676428584 0.0 -0.0058556553720260068 0.022461272197757912 0.0 -0.0014972592218536742 0.046092817982128914 0.0 -0.040955353036006524 0.033671753156811743 0.0 0.04468886298092923 0.0092554854451617555 0.0 0.0050213134503762852 -0.0046230113748870543 0.0 0.0043620414352595607 0.0093602779676714223 0.0 0.0011023277424550774 -0.0034973324157689446 0.0 0.00189340391671243 0.00067157614492628984 0.0 0.00033122741038599246 0.0032205679419717512 0.0 -0.0031407385969055767 -0.0013436741993055629 0.0 -0.00133015477415453 0.0047308345566138398 0.0 -0.00089426246586121955 0.0012399458389913702 0.0 -0.0013105623112629888 0.0070351579067127355 0.0 -0.0099640285219756916 0.0060791403262948247 0.0 -0.0042193768516748517 -0.03578941275662588 0.0 -0.017301982776942199 -0.056293179427652391 0.0 0.0054478356073293299 0.004698666960227086 0.0 0.0022649966794299637 0.0056363575081117556 0.0 0.0029929065082272884 -3.0904089416484634e-05 0.0 0.00029009914616085972 -0.0010242865124864007 0.0 0.0022583047731272931 0.0069569269415940506 0.0 0.0035085125076893715 0.0027220548266327117 0.0 -0.00065529856457404942 0.012154289742416727 0.0 0.0069447281933817731 0.0073540924741030073 0.0 0.001671926753417558 0.0042067836209863183 0.0 0.0062077382897921694 0.005726400940592455 0.0 -0.0017045448144162815 0.00088227598063275389 0.0 -0.016689385011666696 0.01043237063666794 0.0 -0.011739061923139754 -0.0013042333214698699 0.0 -0.0082103426097479976 0.0039980052571041216 0.0 -0.0029945524100345455 0.0016630667364662451 0.0 -0.0028662411037687074 0.026675133971087853 0.0 0.044555863147344416 -0.0047437440134700162 0.0 0.021362970353954271 -0.0068546134507167372 0.0 -0.020291256423795895 0.016498504764834783 0.0 0.015788866125773366 0.024163791272245532 0.0 0.1750423049341725 -0.065104667834514629 0.0 -0.021443645780733468 -0.014446793183575328 0.0 -0.0024786039634588173 -0.039644049823970039 0.0 0.0010600984707137843 0.0043946903311175341 0.0 0.00099298082551723538 -0.00085394122300780535 0.0 -0.0029835974827104421 0.0084332195619743165 0.0 -0.00068884606498099228 0.0088690178670894574 0.0 0.0028957262842164346 0.012237292885459456 0.0 0.0049661671709801698 0.0015392013005933241 0.0 0.00073062966651513302 0.0044379953413445691 0.0 -0.0015709002704690828 0.0026534997261374919 0.0 -0.0016031100502418576 0.0079277688232625605 0.0 0.0002220789772001009 -0.029373134736215074 0.0 -0.0057619859040590219 0.0026285493950302212 0.0 -0.0072696291559279438 0.012072366975692356 0.0 -0.0081945682494204159 0.01544376115791731 0.0 -0.0094137605845683835 0.018911087731078427 0.0 -0.018892106469557128 0.0059985073832227766 0.0 0.015269301540986468 0.020779557755158936 0.0 0.052254023492474155 -0.011549497218820468 0.0 0.00092613646182722678 0.0051258938641016299 0.0 0.047896453060264507 0.0049681479865351652 0.0 0.0046796342594004284 0.00079080948659582262 0.0 0.0014631278371664842 -0.023725858398608104 0.0 0.0014087280228767263 0.0 0.0 -0.002040849225287085 -0.064718787878242853 0.0 -0.0026987437367782981 0.007265190739033962 0.0 0.00026046659568434668 0.0033898640428581817 0.0 0.0011025985126458162 -0.0011349482165986732 0.0 -0.0082201985790042176 4.5837250349218097e-06 0.0 0.0098617772328651876 0.0094712693200974807 0.0 0.018243545400638769 -0.0037524862595312105 0.0 -0.00040648362298640987 0.001458375108146245 0.0 0.00011264561241656351 0.00056950418113687815 0.0 -0.0017167266132113133 0.008149078240925596 0.0 0.00020197907045996764 -0.00024875966228454793 0.0 -0.0027454781389131878 0.004344467139263182 0.0 -5.8423302038158637e-05 0.00022922752744791383 0.0 -0.0031088382260894259 -0.0071966345524314985 0.0 -0.015717521832030477 -0.028181353893510886 0.0 0.012253555077418876 0.00038472213424553536 0.0 -0.0034018082824061437 0.0055695828854689811 0.0 </DataArray>
<DataArray Name="radii" format="ascii" type="Float32">1.3000000000000003 1.3000000000000003 1.3000000000000003 1.1500000000000001 1.3000000000000003 1.3000000000000003 1.1500000000000001 1.3000000000000003 1.1500000000000001 1.3000000000000003 1.1500000000000001 1.1500000000000001 1.1500000000000001 1.3000000000000003 1.3000000000000003 1.3000000000000003 1.1500000000000001 1.3000000000000003 1.3000000000000003 1.1500000000000001 1.3000000000000003 1.3000000000000003 1.3000000000000003 1.3000000000000003 1.1500000000000001 1.3000000000000003 1.3000000000000003 1.3000000000000003 1.1500000000000001 1.3000000000000003 1.3000000000000003 1.3000000000000003 1.3000000000000003 1.3000000000000003 1.3000000000000003 1.3000000000000003 1.3000000000000003 1.3000000000000003 1.3000000000000003 1.3000000000000003 1.3000000000000003 1.3000000000000003 1.3000000000000003 1.3000000000000003 1.3000000000000003 1.3000000000000003 1.3000000000000003 1.3000000000000003 1.3000000000000003 1.3000000000000003 1.3000000000000003 1.3000000000000003 1.1500000000000001 1.1500000000000001 1.1500000000000001 1.1500000000000001 1.1500000000000001 1.1500000000000001 1.1500000000000001 1.1500000000000001 1.1500000000000001 1.1500000000000001 1.3000000000000003 1.3000000000000003 1.3000000000000003 1.3000000000000003 1.3000000000000003 1.3000000000000003 1.3000000000000003 1.3000000000000003 1.3000000000000003 1.3000000000000003 1.3000000000000003 1.3000000000000003 1.3000000000000003 1.3000000000000003 1.3000000000000003 1.3000000000000003 1.3000000000000003 1.3000000000000003 1.3000000000000003 1.3000000000000003 1.3000000000000003 1.3000000000000003 1.3000000000000003 1.3000000000000003 1.3000000000000003 1.3000000000000003 1.3000000000000003 1.3000000000000003 1.3000000000000003 1.3000000000000003 1.3000000000000003 1.3000000000000003 1.3000000000000003 1.3000000000000003 1.3000000000000003 1.3000000000000003 1.3000000000000003 1.3000000000000003 1.3000000000000003 1.3000000000000003 1.3000000000000003 1.3000000000000003 1.1500000000000001 1.1500000000000001 1.1500000000000001 1.1500000000000001 1.1500000000000001 1.1500000000000001 1.1500000000000001 1.1500000000000001 1.1500000000000001 1.1500000000000001 1.1500000000000001 1.1500000000000001 1.1500000000000001 1.1500000000000001 1.1500000000000001 1.1500000000000001 1.1500000000000001 1.1500000000000001 1.1500000000000001 1.1500000000000001 </DataArray>
</PointData>
<CellData/>
</Piece>
</UnstructuredGrid>
</VTKFile>
