<?xml version="1.0" ?>
<VTKFile byte_order="LittleEndian" type="UnstructuredGrid" version="0.1">
<UnstructuredGrid>
<Piece NumberOfCells="0" NumberOfPoints="62">
<Points>
<DataArray NumberOfComponents="3" format="ascii" type="Float32">2.2071724400789678 3.3051748841359045 2 5.8931375465495961 1.3371663697361644 2 5.868900846607561 3.8872233801197895 2 7.68311802888726 2.625007766407268 2 11.652680370501603 3.3175265491456369 2 15.418085895978393 5.3073003027799137 2 15.879704181840918 1.03 2 24.974407924497864 2.8127925361009858 2 28.013297049317643 1.03 2 29.050026300212931 5.3449512074583154 2 30.41923324853752 1.03 2 33.9664718663022 3.0250293212518331 2 38.021807360263168 2.2967922683699853 2 42.155789708619025 1.9256877522796472 2 44.043757146905634 3.2912051179963928 2 48.168921519152377 3.0556055343565047 2 50.827615593520058 2.0848197386010678 2 53.449393895103924 2.982639577803909 2 58.759219662661337 3.3972767141275 2 62.836580051026445 2.0082898211897957 2 64.885871637133931 3.3768883469329376 2 69.442210645720465 2.3486183292665515 2 71.492197328503238 1.1800000000000002 2 74.377194211937365 3.7730888331674546 2 75.734201513289278 2.12968319119621 2 77.245159888017668 3.8432160306569667 2 86.840330808807877 3.0428121145530729 2 89.201126836474913 2.8467489584699175 2 92.276514212996943 2.0241474115625797 2 94.994831768169973 3.2386932600824347 2 98.82 1.1800000000000002 2 1.1800000000000002 1.1800000000000002 2 3.5304845422300573 1.1800000000000002 2 6.9450482073419462 5.987630416988587 2 13.394293696794829 1.1800000000000002 2 14.889304271102729 3.0078663445268656 2 26.246396042470071 4.9169358028177035 2 29.466582024951691 3.0297414077021654 2 39.878015692302029 1.1800000000000002 2 42.064785142955813 4.6212223271827755 2 46.188878155480268 4.3207659487461427 2 55.391624508982652 4.3238150626054273 2 56.820890709926523 2.0479077020747036 2 67.238551022059212 3.1932238753909941 2 69.09498804732209 4.6828243139047903 2 72.012322922970739 3.4771273901522601 2 72.980136799468411 5.7279007108102 2 75.766285353303999 5.6930193495954766 2 86.240311788872518 5.3633109841576916 2 88.590429931821262 5.1124404345685086 2 96.469955587417786 1.3965180011253409 2 98.819999999999993 3.5403414481525783 2 8.9858939242038698 1.03 2 17.818771216589411 1.725479668324462 2 27.182030265500579 2.9148282227739557 2 32.345913944661348 1.7268139395063555 2 35.146243791183934 4.7163235421902607 2 35.994160022255301 2.845270667199272 2 49.06114829229783 1.03 2 61.023686268609737 1.03 2 74.045392309483432 1.03 2 90.472536996736181 1.03 2 </DataArray>
</Points>
<Cells>
<DataArray Name="connectivity" format="ascii" type="Int32">0</DataArray>
<DataArray Name="offsets" format="ascii" type="Int32">0</DataArray>
<DataArray Name="types" format="ascii" type="UInt8">1</DataArray>
</Cells>
<PointData>
<DataArray Name="Points" NumberOfComponents="3" format="ascii" type="Float32">2.2071724400789678 3.3051748841359045 2 5.8931375465495961 1.3371663697361644 2 5.868900846607561 3.8872233801197895 2 7.68311802888726 2.625007766407268 2 11.652680370501603 3.3175265491456369 2 15.418085895978393 5.3073003027799137 2 15.879704181840918 1.03 2 24.974407924497864 2.8127925361009858 2 28.013297049317643 1.03 2 29.050026300212931 5.3449512074583154 2 30.41923324853752 1.03 2 33.9664718663022 3.0250293212518331 2 38.021807360263168 2.2967922683699853 2 42.155789708619025 1.9256877522796472 2 44.043757146905634 3.2912051179963928 2 48.168921519152377 3.0556055343565047 2 50.827615593520058 2.0848197386010678 2 53.449393895103924 2.982639577803909 2 58.759219662661337 3.3972767141275 2 62.836580051026445 2.0082898211897957 2 64.885871637133931 3.3768883469329376 2 69.442210645720465 2.3486183292665515 2 71.492197328503238 1.1800000000000002 2 74.377194211937365 3.7730888331674546 2 75.734201513289278 2.12968319119621 2 77.245159888017668 3.8432160306569667 2 86.840330808807877 3.0428121145530729 2 89.201126836474913 2.8467489584699175 2 92.276514212996943 2.0241474115625797 2 94.994831768169973 3.2386932600824347 2 98.82 1.1800000000000002 2 1.1800000000000002 1.1800000000000002 2 3.5304845422300573 1.1800000000000002 2 6.9450482073419462 5.987630416988587 2 13.394293696794829 1.1800000000000002 2 14.889304271102729 3.0078663445268656 2 26.246396042470071 4.9169358028177035 2 29.466582024951691 3.0297414077021654 2 39.878015692302029 1.1800000000000002 2 42.064785142955813 4.6212223271827755 2 46.188878155480268 4.3207659487461427 2 55.391624508982652 4.3238150626054273 2 56.820890709926523 2.0479077020747036 2 67.238551022059212 3.1932238753909941 2 69.09498804732209 4.6828243139047903 2 72.012322922970739 3.4771273901522601 2 72.980136799468411 5.7279007108102 2 75.766285353303999 5.6930193495954766 2 86.240311788872518 5.3633109841576916 2 88.590429931821262 5.1124404345685086 2 96.469955587417786 1.3965180011253409 2 98.819999999999993 3.5403414481525783 2 8.9858939242038698 1.03 2 17.818771216589411 1.725479668324462 2 27.182030265500579 2.9148282227739557 2 32.345913944661348 1.7268139395063555 2 35.146243791183934 4.7163235421902607 2 35.994160022255301 2.845270667199272 2 49.06114829229783 1.03 2 61.023686268609737 1.03 2 74.045392309483432 1.03 2 90.472536996736181 1.03 2 </DataArray>
<DataArray Name="forces" NumberOfComponents="3" format="ascii" type="Float32">0.0 0.0 0.0 0.0082724181070705834 0.00055155559989264263 0.0 0.0 0.0 0.0 -0.00024482521006274519 0.00029949620369558688 0.0 0.0 0.0 0.0 0.0 0.0 0.0 0.0 0.0 0.0 9.6923171389540925e-07 1.4510462743453975e-06 0.0 3.7758781842746171e-05 -8.5619813255700827e-05 0.0 0.0 0.0 0.0 0.0040443593949047009 -0.0085366779947778811 0.0 0.0080384630233536966 0.0064395454202239846 0.0 0.024516449397893724 -0.0066316970701360937 0.0 0.023754412097800683 0.0078833047429081714 0.0 -0.010962045107965406 -0.0052612846655081362 0.0 -0.0026927613084509238 0.0061373619770420645 0.0 -0.00036123866725723764 0.00022837046246059747 0.0 -0.00016611726530308147 -6.8204230421856332e-05 0.0 0.0 0.0 0.0 0.0 0.0 0.0 0.0 0.0 0.0 -6.034739348802459e-05 7.7924109613606191e-05 0.0 -5.6814562359296366e-05 -0.0018051428603411239 0.0 0.018883589205600203 -0.021132558376013005 0.0 -0.072406172990400891 0.022563819677372376 0.0 -0.00057239207587676257 0.0016837793892837179 0.0 0.0035163919079233049 0.0093339253364248774 0.0 0.0032632427312646374 0.011185584960469071 0.0 0.0 0.0 0.0 -3.982063551099484e-06 4.97286508604477e-06 0.0 1.1245256223056833e-05 -1.0360942974618175e-06 0.0 -0.0040970152626007561 0.0 0.0 -0.0041754028444698273 -0.00055155559989264263 0.0 0.0 0.0 0.0 -0.00099845973000603039 -0.0012217356555719414 0.0 0.00099845973000603039 0.0012217356555719414 0.0 -1.6977018427307721e-05 3.6328217452118434e-05 0.0 -0.0040443593949047009 0.0085366779947778811 0.0 -0.023754412097800683 -0.0078833047429081714 0.0 0.0 0.0 0.0 0.010962045107965406 0.0052612846655081362 0.0 0.0001971689660874647 0.00013615792187528046 0.0 0.0 0.0 0.0 -0.00025932213695931632 9.9399812819096496e-05 0.0 -7.9528064520650316e-07 5.3453048945652899e-06 0.0 -0.010856730203485578 6.0409534080059024e-05 0.0 -0.012007104930090832 0.016860817781829664 0.0 0.0043575253014280493 0.0058338046931171389 0.0 -0.0021628170762853401 0.00023087652432135928 0.0 0.0021628170762853401 -0.00023087652432135928 0.0 -7.2631926719573492e-06 -3.9367707885829523e-06 0.0 0.0 0.0 0.0 -0.00082766004854023024 -0.00033483551901207579 0.0 0.0 0.0 0.0 -2.0781763415438449e-05 4.9291595803582394e-05 0.0 -0.0080384630233536966 -0.0064395454202239846 0.0 0.0 0.0 0.0 -0.024516449397893724 0.0066316970701360937 0.0 0.0026927613084509238 -0.0061373619770420645 0.0 0.0 0.0 0.0 0.0 0.0 0.0 0.0020206669820000329 -0.0028606823561749609 0.0 </DataArray>
<DataArray Name="radii" format="ascii" type="Float32">1.1800000000000002 1.1800000000000002 1.1800000000000002 1.03 1.1800000000000002 1.1800000000000002 1.03 1.1800000000000002 1.03 1.1800000000000002 1.03 1.03 1.03 1.1800000000000002 1.1800000000000002 1.1800000000000002 1.03 1.1800000000000002 1.1800000000000002 1.03 1.1800000000000002 1.1800000000000002 1.1800000000000002 1.1800000000000002 1.03 1.1800000000000002 1.1800000000000002 1.1800000000000002 1.03 1.1800000000000002 1.1800000000000002 1.1800000000000002 1.1800000000000002 1.1800000000000002 1.1800000000000002 1.1800000000000002 1.1800000000000002 1.1800000000000002 1.1800000000000002 1.1800000000000002 1.1800000000000002 1.1800000000000002 1.1800000000000002 1.1800000000000002 1.1800000000000002 1.1800000000000002 1.1800000000000002 1.1800000000000002 1.1800000000000002 1.1800000000000002 1.1800000000000002 1.1800000000000002 1.03 1.03 1.03 1.03 1.03 1.03 1.03 1.03 1.03 1.03 </DataArray>
</PointData>
<CellData/>
</Piece>
</UnstructuredGrid>
</VTKFile>
