<?xml version="1.0" ?>
<VTKFile byte_order="LittleEndian" type="UnstructuredGrid" version="0.1">
<UnstructuredGrid>
<Piece NumberOfCells="0" NumberOfPoints="20">
<Points>
<DataArray NumberOfComponents="3" format="ascii" type="Float32">9.767405965935815 1.1 2 18.537991648078467 2.3504389777668071 2 20.142275776726535 1 2 22.104177679062772 2.0019799279379282 2 24.058377099549286 1 2 35.7718700941669 1 2 44.146530366247866 1 2 46.239912759903696 1.1 2 52.257986674259811 1 2 55.757603159229895 1.1 2 59.795646406488579 1.1 2 64.459716825438065 1.1 2 67.687635426095284 1 2 79.306810614637087 1.2000000000000002 2 82.938090684397778 1.3530499998960168 2 85.113159939538065 1 2 87.893956232552412 1 2 93.733758984610816 1.1 2 79.614615537645975 3.3782479125467155 2 81.840636283612668 3.4854021672088256 2 </DataArray>
</Points>
<Cells>
<DataArray Name="connectivity" format="ascii" type="Int32">0</DataArray>
<DataArray Name="offsets" format="ascii" type="Int32">0</DataArray>
<DataArray Name="types" format="ascii" type="UInt8">1</DataArray>
</Cells>
<PointData>
<DataArray Name="Points" NumberOfComponents="3" format="ascii" type="Float32">9.767405965935815 1.1 2 18.537991648078467 2.3504389777668071 2 20.142275776726535 1 2 22.104177679062772 2.0019799279379282 2 24.058377099549286 1 2 35.7718700941669 1 2 44.146530366247866 1 2 46.239912759903696 1.1 2 52.257986674259811 1 2 55.757603159229895 1.1 2 59.795646406488579 1.1 2 64.459716825438065 1.1 2 67.687635426095284 1 2 79.306810614637087 1.2000000000000002 2 82.938090684397778 1.3530499998960168 2 85.113159939538065 1 2 87.893956232552412 1 2 93.733758984610816 1.1 2 79.614615537645975 3.3782479125467155 2 81.840636283612668 3.4854021672088256 2 </DataArray>
<DataArray Name="forces" NumberOfComponents="3" format="ascii" type="Float32">-0.0021640822985131303 -0.0024414236263293827 0.0 0.0015900848035273491 0.0042555186951531883 0.0 -0.0017679145832317526 -0.0042389382592988405 0.0 0.0027825275846632466 0.0029136067588822661 0.0 -0.0004691437998161933 -0.0026945379243809627 0.0 0.069602138577981768 -0.023270314598400798 0.0 0.00093176262093008116 -0.00143088545260941 0.0 -0.0024482465358423786 -0.0025375065531066262 0.0 -0.0046187672388065416 -0.0050362925480898178 0.0 -0.00094118901716296662 -0.0031974664983038595 0.0 -0.002994600460742132 -0.0053640337768616391 0.0 0.0055850124377237534 -0.0047554400159757039 0.0 -0.0011435814319759154 -0.0029083233623489325 0.0 -0.0014948860363016966 -0.0098806311306078674 0.0 0.0 0.0 0.0 -0.0037241822721121561 -0.0053821868988672885 0.0 0.0 0.0 0.0 0.034702600337570319 -0.0064756149156371444 0.0 -0.015278204307783689 0.0089671379865322778 0.0 0.016773090344085386 0.00091349314407559003 0.0 </DataArray>
<DataArray Name="radii" format="ascii" type="Float32">1.1 1.1 1 1.2000000000000002 1 1 1 1.1 1 1.1 1.1 1.1 1 1.2000000000000002 1.2000000000000002 1 1 1.1 1 1.2000000000000002 </DataArray>
</PointData>
<CellData/>
</Piece>
</UnstructuredGrid>
</VTKFile>
