<?xml version="1.0" ?>
<VTKFile byte_order="LittleEndian" type="UnstructuredGrid" version="0.1">
<UnstructuredGrid>
<Piece NumberOfCells="0" NumberOfPoints="124">
<Points>
<DataArray NumberOfComponents="3" format="ascii" type="Float32">1.2100000000000002 6.1361754595236748 2 7.8702920775361225 1.2100000000000002 2 4.5822954528932875 6.9132262313002792 2 9.2329789719464728 6.6673854325024502 2 12.317390776011463 5.9215316406420762 2 15.498072630138115 8.3073420262413684 2 16.86627916704964 2.2279245838508239 2 23.487188216881624 4.7556504919956231 2 26.062793773902026 1.06 2 27.7732762731824 7.9776978942609116 2 29.753893591498052 2.472031923537648 2 33.079790433985529 5.1318061614505934 2 39.390335196450529 5.2343940625379251 2 40.84911304377033 3.4988200729374439 2 45.313931094935484 3.0577805045498327 2 47.728742882101571 4.9207493208262632 2 52.071348998501165 3.881458319434739 2 53.488296470563519 5.6465054374054748 2 58.277318917567044 5.4367251356518222 2 63.25400471430666 1.06 2 62.427801514058437 7.5155554160550002 2 66.133973578256658 4.8068027507939348 2 69.656018297447048 1.2100000000000002 2 72.830405671872171 7.4962025302617388 2 73.956307464140252 5.541158215344165 2 77.255491536979633 8.7363914496669057 2 89.153013896253825 4.2007995810560583 2 91.204889998117409 2.9876075935645305 2 94.468010373305702 4.8084978513127492 2 95.094115372093597 6.9615664942184852 2 96.487723895780604 1.2100000000000002 2 1.2100000000000002 3.6272791527555168 2 3.3186869527396681 2.3503293881235416 2 6.9678311786484786 6.5332385244769879 2 14.852172102782932 1.2100000000000002 2 14.732250654508393 6.012243349130844 2 25.25261829977708 6.4102801046471898 2 29.062152813673933 5.9390376595642556 2 40.06259487859797 1.2100000000000002 2 40.932866096112505 6.8989020433093673 2 46.765115100752048 7.1360310382595111 2 55.874309378568924 5.2484360283670037 2 57.211989794880154 3.2174120221969664 2 64.371467869513651 3.152887128126225 2 67.05357229788919 7.3082150620213575 2 70.169165759712627 3.6780420948858672 2 71.709134355090072 9.6395643887999043 2 74.126079257174325 9.554551960527224 2 90.452186223723984 9.4430303201439738 2 92.864932681741095 9.5754897940725545 2 96.381349350788668 3.6105670264665126 2 98.79 7.7354147481811246 2 10.416190549257935 1.06 2 18.96721611505134 5.010218525498785 2 27.870860696387055 4.0070926743604796 2 32.728868059489272 3.0468706376201058 2 37.147027964783575 6.2916666772743657 2 36.508629961060961 4.2702908806818254 2 48.042160622474455 2.6821328984454063 2 59.692631450043123 2.6001748009446009 2 73.547794113980018 1.06 2 92.237326728227956 1.06 2 3.2747457292728446 4.88054313704008 2 7.6667571111981703 4.2334912802647731 2 5.3438242749178126 3.6373012987892865 2 12.085661712916609 3.3676301099510693 2 17.400642698248308 6.8131314987654816 2 24.294095876768285 2.4764131129610147 2 30.661614921405789 7.7783297241633935 2 42.424060376501437 1.6652804562020682 2 45.012426304449612 5.4578767823076584 2 49.279979787953231 6.7751609073880763 2 54.525095775039425 3.2390560595095792 2 60.57397927907288 4.6857142840986334 2 62.941632042953835 5.0977850747918163 2 68.59293159541312 5.4528807441421536 2 67.869326606792882 3.1437623405898392 2 70.957277834345746 5.9714070495039051 2 75.245505617579639 7.4278384095933729 2 86.876062632720078 3.8687146650790418 2 90.473069440788407 6.2221414767054357 2 96.6281085067709 8.8124119026444117 2 98.79 1.2100000000000002 2 1.2100000000000002 1.2100000000000002 2 5.4511027990106236 1.2100000000000002 2 7.0851954721656014 8.9426776936149075 2 14.494085805999948 3.604013034880202 2 16.75274132932573 4.4861893570363778 2 25.504417874272121 8.8163897198505978 2 30.93110614684652 4.4081976402647829 2 37.663330088819286 1.2125123940908507 2 42.611469278529022 5.1558943033686218 2 44.162125524846026 7.723182388592809 2 55.024528799466879 7.5160304050608362 2 55.850737171964681 1.2158542162760388 2 64.718680295461269 6.7394285493827946 2 67.106147091925564 9.7133441779934255 2 69.42345005439293 7.8378396495845228 2 69.426166725263514 10.392301512803703 2 74.484665171393303 12.062473679363093 2 89.504751269518152 12.192405279520798 2 92.685976041836483 7.163883496870171 2 97.280586561644469 5.8510278543483007 2 98.79 3.646522093927544 2 10.322291990924604 4.853820607693633 2 18.620670753731712 1.06 2 28.179135803777029 1.06 2 31.327286084811 1.06 2 35.078775607144287 5.8346130356514365 2 38.418397064679731 3.3506650591525746 2 50.113862904676033 3.0837131010020067 2 62.110961416070303 2.949458723738644 2 72.383713749909845 4.1856127213284484 2 92.360482893155307 4.9323356556825573 2 9.4828115393282726 2.9217160046269579 2 19.540486461935753 2.9694522161237553 2 25.76224784765423 4.2009176050242942 2 33.440637885599202 1.06 2 36.403582325564031 8.2778624780642076 2 34.847779314268415 2.9572296620002727 2 49.402463694528144 1.06 2 61.138619542637116 1.06 2 71.76172487679051 2.055988835509218 2 93.401867844108139 3.0164108573269068 2 </DataArray>
</Points>
<Cells>
<DataArray Name="connectivity" format="ascii" type="Int32">0</DataArray>
<DataArray Name="offsets" format="ascii" type="Int32">0</DataArray>
<DataArray Name="types" format="ascii" type="UInt8">1</DataArray>
</Cells>
<PointData>
<DataArray Name="Points" NumberOfComponents="3" format="ascii" type="Float32">1.2100000000000002 6.1361754595236748 2 7.8702920775361225 1.2100000000000002 2 4.5822954528932875 6.9132262313002792 2 9.2329789719464728 6.6673854325024502 2 12.317390776011463 5.9215316406420762 2 15.498072630138115 8.3073420262413684 2 16.86627916704964 2.2279245838508239 2 23.487188216881624 4.7556504919956231 2 26.062793773902026 1.06 2 27.7732762731824 7.9776978942609116 2 29.753893591498052 2.472031923537648 2 33.079790433985529 5.1318061614505934 2 39.390335196450529 5.2343940625379251 2 40.84911304377033 3.4988200729374439 2 45.313931094935484 3.0577805045498327 2 47.728742882101571 4.9207493208262632 2 52.071348998501165 3.881458319434739 2 53.488296470563519 5.6465054374054748 2 58.277318917567044 5.4367251356518222 2 63.25400471430666 1.06 2 62.427801514058437 7.5155554160550002 2 66.133973578256658 4.8068027507939348 2 69.656018297447048 1.2100000000000002 2 72.830405671872171 7.4962025302617388 2 73.956307464140252 5.541158215344165 2 77.255491536979633 8.7363914496669057 2 89.153013896253825 4.2007995810560583 2 91.204889998117409 2.9876075935645305 2 94.468010373305702 4.8084978513127492 2 95.094115372093597 6.9615664942184852 2 96.487723895780604 1.2100000000000002 2 1.2100000000000002 3.6272791527555168 2 3.3186869527396681 2.3503293881235416 2 6.9678311786484786 6.5332385244769879 2 14.852172102782932 1.2100000000000002 2 14.732250654508393 6.012243349130844 2 25.25261829977708 6.4102801046471898 2 29.062152813673933 5.9390376595642556 2 40.06259487859797 1.2100000000000002 2 40.932866096112505 6.8989020433093673 2 46.765115100752048 7.1360310382595111 2 55.874309378568924 5.2484360283670037 2 57.211989794880154 3.2174120221969664 2 64.371467869513651 3.152887128126225 2 67.05357229788919 7.3082150620213575 2 70.169165759712627 3.6780420948858672 2 71.709134355090072 9.6395643887999043 2 74.126079257174325 9.554551960527224 2 90.452186223723984 9.4430303201439738 2 92.864932681741095 9.5754897940725545 2 96.381349350788668 3.6105670264665126 2 98.79 7.7354147481811246 2 10.416190549257935 1.06 2 18.96721611505134 5.010218525498785 2 27.870860696387055 4.0070926743604796 2 32.728868059489272 3.0468706376201058 2 37.147027964783575 6.2916666772743657 2 36.508629961060961 4.2702908806818254 2 48.042160622474455 2.6821328984454063 2 59.692631450043123 2.6001748009446009 2 73.547794113980018 1.06 2 92.237326728227956 1.06 2 3.2747457292728446 4.88054313704008 2 7.6667571111981703 4.2334912802647731 2 5.3438242749178126 3.6373012987892865 2 12.085661712916609 3.3676301099510693 2 17.400642698248308 6.8131314987654816 2 24.294095876768285 2.4764131129610147 2 30.661614921405789 7.7783297241633935 2 42.424060376501437 1.6652804562020682 2 45.012426304449612 5.4578767823076584 2 49.279979787953231 6.7751609073880763 2 54.525095775039425 3.2390560595095792 2 60.57397927907288 4.6857142840986334 2 62.941632042953835 5.0977850747918163 2 68.59293159541312 5.4528807441421536 2 67.869326606792882 3.1437623405898392 2 70.957277834345746 5.9714070495039051 2 75.245505617579639 7.4278384095933729 2 86.876062632720078 3.8687146650790418 2 90.473069440788407 6.2221414767054357 2 96.6281085067709 8.8124119026444117 2 98.79 1.2100000000000002 2 1.2100000000000002 1.2100000000000002 2 5.4511027990106236 1.2100000000000002 2 7.0851954721656014 8.9426776936149075 2 14.494085805999948 3.604013034880202 2 16.75274132932573 4.4861893570363778 2 25.504417874272121 8.8163897198505978 2 30.93110614684652 4.4081976402647829 2 37.663330088819286 1.2125123940908507 2 42.611469278529022 5.1558943033686218 2 44.162125524846026 7.723182388592809 2 55.024528799466879 7.5160304050608362 2 55.850737171964681 1.2158542162760388 2 64.718680295461269 6.7394285493827946 2 67.106147091925564 9.7133441779934255 2 69.42345005439293 7.8378396495845228 2 69.426166725263514 10.392301512803703 2 74.484665171393303 12.062473679363093 2 89.504751269518152 12.192405279520798 2 92.685976041836483 7.163883496870171 2 97.280586561644469 5.8510278543483007 2 98.79 3.646522093927544 2 10.322291990924604 4.853820607693633 2 18.620670753731712 1.06 2 28.179135803777029 1.06 2 31.327286084811 1.06 2 35.078775607144287 5.8346130356514365 2 38.418397064679731 3.3506650591525746 2 50.113862904676033 3.0837131010020067 2 62.110961416070303 2.949458723738644 2 72.383713749909845 4.1856127213284484 2 92.360482893155307 4.9323356556825573 2 9.4828115393282726 2.9217160046269579 2 19.540486461935753 2.9694522161237553 2 25.76224784765423 4.2009176050242942 2 33.440637885599202 1.06 2 36.403582325564031 8.2778624780642076 2 34.847779314268415 2.9572296620002727 2 49.402463694528144 1.06 2 61.138619542637116 1.06 2 71.76172487679051 2.055988835509218 2 93.401867844108139 3.0164108573269068 2 </DataArray>
<DataArray Name="forces" NumberOfComponents="3" format="ascii" type="Float32">-0.0030714416975081271 0.0018674876294610594 0.0 0.00082954227431253358 0.0 0.0 -0.0027291661689560062 0.003409068059282129 0.0 -0.0014230208827407421 0.0039732036393453577 0.0 0.0029749612525764137 0.0033535272038312199 0.0 -0.00049398525216999816 0.0010264922769536045 0.0 0.0019964986550824893 0.0041320005790730103 0.0 -0.00084463307972285984 0.0023517758675020125 0.0 -0.00062190815953258941 -0.0026012779003628549 0.0 0.0029982354062336627 -0.00021274015254884259 0.0 -0.0015963993902537816 0.0032760581886732147 0.0 -0.0050659191780233707 -0.0017810851577426611 0.0 -0.00047379329380560779 0.0018610536383141109 0.0 -0.0024866528734355177 0.0051077516385118994 0.0 0.00080977027365279153 0.0010011812128184955 0.0 -0.0011623421204430006 0.0036881688459741023 0.0 0.0061117241312827145 0.0010563830303263271 0.0 -0.0084785178031357711 0.00054355240724942785 0.0 -0.01310580895624313 0.0046248607090227213 0.0 0.011192534217300543 -3.5979317294452786e-05 0.0 -0.021504814602685291 0.0073501502133131637 0.0 -0.028729024549408504 0.033628729983863119 0.0 -0.043935837043992849 -0.018541354691306296 0.0 -0.00014568020427282134 -0.010983626333690722 0.0 -0.074290829951232012 -0.023583119831200639 0.0 -0.035486532470944861 0.043729918461514014 0.0 -0.17254324092326667 0.055933247956347951 0.0 0.12928902763692857 -0.12048635801638409 0.0 -0.0038513034060567233 0.01755844651721724 0.0 0.0088719527760787835 0.014706449950952771 0.0 -0.065876370925330302 -0.010459494159640622 0.0 -0.0041765620102391732 0.00031112403958830732 0.0 0.0011538374205460993 0.00068641573523121955 0.0 -0.0017455665994022503 0.0074881302688112293 0.0 0.0028966622166734166 -0.0054453103018913852 0.0 0.0033709329143309782 -0.00034023065144516573 0.0 -0.00064724925515200079 0.00078782811795455668 0.0 -0.010181956672839908 0.011235832515353124 0.0 -0.0034815422049993862 -0.0055206701990044632 0.0 0.00022333070519774925 0.00030706243354385732 0.0 -0.0017747816670867327 0.0040807910278730375 0.0 0.0092643533207016626 0.0019348898786789698 0.0 0.0 0.0 0.0 0.0042282381190996265 -0.0065742238349987409 0.0 -0.025665549692913292 0.026745195096448987 0.0 -0.16827462573176802 0.042015214626784175 0.0 -0.031146368299638856 0.015017207988468246 0.0 0.023744951170787679 -0.00078010467604293322 0.0 -0.021627551574503277 -0.0011376763972553653 0.0 0.022583488266294631 0.015017634993431239 0.0 0.0021004808849536018 -0.0035370343519949654 0.0 0.0076841463173050028 0.0016407545826441433 0.0 0.00045068294484441884 -0.034745141593864652 0.0 -7.2158772067348607e-05 0.00025691345808789569 0.0 0.00056346958343405089 -0.0024695267786558062 0.0 -0.012880923490087655 0.017036670649644987 0.0 0.00019172604335761128 0.0006076418525263475 0.0 -0.001500127339316868 2.2260862780404704e-05 0.0 0.0018109508178053599 0.0035656970930109068 0.0 -0.0027575250980533708 -0.0031881798512966219 0.0 -0.056264112927114945 -0.024508079770764836 0.0 -0.18772909679893826 -0.0038082272772132697 0.0 8.3152048340473517e-05 0.0012364848320829281 0.0 0.0018743608080897707 0.0072952764311543065 0.0 0.001366270339136208 0.0024104703054342626 0.0 -5.3432292341974619e-06 -5.2445562308146337e-07 0.0 0.0019177163996977767 0.0039958706989666826 0.0 0.00053590638799420323 0.001889846809125512 0.0 0.0 0.0 0.0 0.0076758316120076817 0.0042337926098522148 0.0 0.00059720891169833857 0.00042325745299266992 0.0 0.0015884065712914925 0.0019009297051261749 0.0 -0.0022139737854492661 -0.0033050861695572138 0.0 0.016218670086340526 0.0064215685286538446 0.0 -0.01858682773469978 -0.0013131799920523685 0.0 0.025586258008101093 -0.03086627930289974 0.0 0.037904370547586719 0.0011716177142898562 0.0 -0.0065969659033418915 0.01445514194892589 0.0 0.007705128245973596 0.061907165237838617 0.0 0.16888407656452589 0.050194320396630632 0.0 0.020740514549410564 0.033885927886923531 0.0 0.0048341557492474945 0.013586586461447867 0.0 0.14412039136362731 0.0 0.0 -0.020465134780572151 -0.013912344997666352 0.0 0.00078257217612185195 -0.00086182527412818097 0.0 0.00038212559512318633 0.0079017368087296661 0.0 2.4029186407179021e-06 -2.9377825655014905e-05 0.0 -0.0017085198733741099 0.0046263315197662292 0.0 -0.0035887763860414511 0.0028057534317077392 0.0 0.01371684862240523 -0.0061978544819759262 0.0 0.0070102523496350369 0.0021109559629177558 0.0 -0.00037190270292235413 1.8818683018448259e-05 0.0 -0.0001716997306962933 0.00045759217643524683 0.0 0.0023788986761451472 0.0029017660550881928 0.0 -0.0035040036216338315 0.00066755241987240125 0.0 0.034513464244116734 0.0053604034297798277 0.0 -0.010440315469028436 0.0010350596761735218 0.0 0.0 0.0 0.0 0.010519607153840633 0.0030860245302772294 0.0 -0.014650502308480494 0.013706563352722389 0.0 0.0 0.0 0.0 -0.011449380087206144 -0.012946925591531617 0.0 -7.2561783020513079e-05 0.0036826530934127473 0.0 0.01025996496826926 0.00014681636374337261 0.0 0.001334614905647678 0.0052363731335349564 0.0 0.00052497941070730797 -0.0073321145205953418 0.0 -8.587851440764252e-05 -0.0035449108489654171 0.0 -0.0085750182870655417 -0.0031335747815958545 0.0 0.0050659191780233707 0.0017810851577426611 0.0 0.00077841002736711682 -0.001593760110200888 0.0 0.0010539811765200788 -0.0014603319189679667 0.0 -0.0030045570680259557 -0.00027409409114016888 0.0 0.10800234774206124 0.014591034232609741 0.0 0.019549864544572824 0.030706783970766011 0.0 0.0020044486572850448 0.0039006674457090097 0.0 0.00013851269493019177 0.0002565258207463175 0.0 0.0022738244599121425 0.0023849134558856316 0.0 0.004971223547168991 -0.016871176922396806 0.0 0.0 0.0 0.0 0.0070201844311453439 0.00092755760426082255 0.0 -0.0014656064502546608 -0.0023758546058177924 0.0 -0.010066670127637402 -0.0032625212590074925 0.0 0.10142760709824751 -0.047652418646809983 0.0 -0.045046261402846517 0.02698640371845757 0.0 </DataArray>
<DataArray Name="radii" format="ascii" type="Float32">1.2100000000000002 1.2100000000000002 1.2100000000000002 1.06 1.2100000000000002 1.2100000000000002 1.06 1.2100000000000002 1.06 1.2100000000000002 1.06 1.06 1.06 1.2100000000000002 1.2100000000000002 1.2100000000000002 1.06 1.2100000000000002 1.2100000000000002 1.06 1.2100000000000002 1.2100000000000002 1.2100000000000002 1.2100000000000002 1.06 1.2100000000000002 1.2100000000000002 1.2100000000000002 1.06 1.2100000000000002 1.2100000000000002 1.2100000000000002 1.2100000000000002 1.2100000000000002 1.2100000000000002 1.2100000000000002 1.2100000000000002 1.2100000000000002 1.2100000000000002 1.2100000000000002 1.2100000000000002 1.2100000000000002 1.2100000000000002 1.2100000000000002 1.2100000000000002 1.2100000000000002 1.2100000000000002 1.2100000000000002 1.2100000000000002 1.2100000000000002 1.2100000000000002 1.2100000000000002 1.06 1.06 1.06 1.06 1.06 1.06 1.06 1.06 1.06 1.06 1.2100000000000002 1.2100000000000002 1.2100000000000002 1.2100000000000002 1.2100000000000002 1.2100000000000002 1.2100000000000002 1.2100000000000002 1.2100000000000002 1.2100000000000002 1.2100000000000002 1.2100000000000002 1.2100000000000002 1.2100000000000002 1.2100000000000002 1.2100000000000002 1.2100000000000002 1.2100000000000002 1.2100000000000002 1.2100000000000002 1.2100000000000002 1.2100000000000002 1.2100000000000002 1.2100000000000002 1.2100000000000002 1.2100000000000002 1.2100000000000002 1.2100000000000002 1.2100000000000002 1.2100000000000002 1.2100000000000002 1.2100000000000002 1.2100000000000002 1.2100000000000002 1.2100000000000002 1.2100000000000002 1.2100000000000002 1.2100000000000002 1.2100000000000002 1.2100000000000002 1.2100000000000002 1.2100000000000002 1.06 1.06 1.06 1.06 1.06 1.06 1.06 1.06 1.06 1.06 1.06 1.06 1.06 1.06 1.06 1.06 1.06 1.06 1.06 1.06 </DataArray>
</PointData>
<CellData/>
</Piece>
</UnstructuredGrid>
</VTKFile>
