<?xml version="1.0" ?>
<VTKFile byte_order="LittleEndian" type="UnstructuredGrid" version="0.1">
<UnstructuredGrid>
<Piece NumberOfCells="0" NumberOfPoints="124">
<Points>
<DataArray NumberOfComponents="3" format="ascii" type="Float32">1.2700000000000002 6.4173733696103774 2 8.0803377198211486 1.2700000000000002 2 4.2542820504996355 7.547516187655547 2 9.1442365118319664 7.2082148066538867 2 12.301914109157545 6.4138471801950949 2 15.561848718627099 8.8648182952959917 2 16.966283127331756 2.5032093641458673 2 23.497628446816076 5.0907255634252433 2 26.062456231356482 1.12 2 27.675979377943673 8.5587046365541202 2 29.774401574959203 2.8051475789374787 2 33.186038383413162 5.316256659631077 2 39.407255776620275 5.5657823701341194 2 40.880539916158348 3.7066624221083555 2 45.442856778993402 3.134513212353673 2 47.749333429833698 5.3311036941680543 2 52.156038147077709 3.9891162908997222 2 53.247283266371781 6.1052825637643728 2 58.179551817641041 5.9654571130471465 2 63.082621366084737 1.1205841819979996 2 61.758870587049763 7.6448647462517325 2 65.50582029738419 5.3959126704674052 2 69.552934666768223 1.2700000000000002 2 72.277699731930483 8.079667236125248 2 73.491191221074814 6.0087012912599889 2 76.832815704731871 9.9936412830799171 2 89.617836980300893 4.9186760718187976 2 91.343399858871294 3.2020299661821339 2 94.586737449833294 5.5125694585604172 2 95.69749406902352 7.6235302670347753 2 96.397074948279538 1.2700000000000002 2 1.2700000000000002 3.8815447303985402 2 3.419040466557393 2.5778434639518455 2 6.7414001768375478 7.0653324769863444 2 14.958415645144941 1.2700000000000002 2 14.815266840834344 6.4478778096149236 2 25.365956481378898 6.8126632567195022 2 28.671528492577014 6.2302083549496352 2 40.187458427740388 1.2700000000000002 2 41.011770611379227 7.3320588439907173 2 46.798655564201468 7.6784019124647305 2 55.702765078896618 5.4825747329407726 2 57.21848368392579 3.4475671200791456 2 64.257152272841438 3.2108636602766643 2 66.7985527371426 7.916102219128021 2 69.524410967162524 3.7634092075412653 2 71.193579381813933 10.347768309675688 2 73.710288325042924 10.287145716424241 2 91.317438661725774 9.579025898311631 2 93.77073406035683 10.197599857886466 2 96.205421635845994 3.7847696196372231 2 98.73 8.2074455010400076 2 10.443534617280351 1.12 2 19.045356212439863 5.401779860945279 2 27.916896670502471 3.9725162021073523 2 32.511326093203181 3.1833808834338719 2 37.404465546587666 6.531689191573391 2 36.47063664670501 4.4365604539181236 2 47.8782260263566 2.9673357473189115 2 59.540312863183388 2.9145625134953455 2 73.283752890314588 1.12 2 92.203950663033268 1.12 2 3.4648875126280698 5.1389533054133398 2 7.9089177097416909 4.8314774256259057 2 5.6170236515486485 3.8040558014476082 2 11.942845016420655 3.3742893973800263 2 17.536923240401588 7.2554977642121736 2 24.246959806596138 2.6671941080393622 2 30.690982794352607 7.8110211957142957 2 42.626627601362244 1.8895108163283472 2 45.238803468332392 5.6655345510602917 2 49.576738607260076 7.0828311772207773 2 54.425802235792844 3.3003451825456516 2 60.530894300976883 5.0707913830555373 2 63.011359953765279 5.4243372813035222 2 67.967682064057072 5.6843310220398315 2 67.061736506057116 3.2509126950338727 2 70.27192159588617 6.6089536470355297 2 74.785295863062373 8.0132356026942109 2 87.67057529068687 3.4561472649444975 2 90.827681152318192 7.0789892335734628 2 96.819305204866993 9.8804069239999013 2 98.73 1.2700000000000002 2 1.2700000000000002 1.2700000000000002 2 5.5642089220096462 1.2700000000000002 2 7.1452906280239352 9.564840567738127 2 14.452312684492735 3.7599266686042414 2 16.746166547580739 4.846870031303288 2 25.261795485139267 9.3437895551748156 2 30.842422590706157 4.9278119828783957 2 37.67668373456231 1.2700000000000002 2 42.715522778985985 5.4514510777115159 2 44.07442867868005 7.9217952616985556 2 55.017566576395609 7.9242748032378829 2 55.920288886087846 1.2700000000000002 2 64.290267933470147 7.6170295741830447 2 66.518401497869093 10.427203136975121 2 69.149648340599683 8.846325927980315 2 68.873646921924717 11.363264198070537 2 73.433405148272087 12.791535978776031 2 90.627788901923338 13.024656476699649 2 93.21496296462638 7.7271827989666315 2 97.559803842628085 5.9638612108497338 2 98.73 3.7656778411202936 2 10.241154819532973 5.258437339346246 2 18.681282727066684 1.12 2 28.299807054649111 1.12 2 31.170701592852616 1.12 2 35.192663166639065 6.2776445195195594 2 38.505037035467176 3.50695804918093 2 50.083820482051692 3.2029499609667043 2 61.882976236801916 3.1032523814872621 2 71.678472551735112 4.7402881076790111 2 92.388583306278221 5.3025390469785112 2 9.5643946289881434 3.1405089454054878 2 19.496320729515041 3.2051947559349765 2 25.778531267323764 4.4725125571248876 2 33.376380779317159 1.12 2 36.305946200311716 8.4790427145322997 2 34.753180910251892 2.9997304270891507 2 49.274418024008419 1.12 2 60.855134329079064 1.12 2 71.552688637963286 2.4967890260360259 2 93.731008515922781 3.2592466567987444 2 </DataArray>
</Points>
<Cells>
<DataArray Name="connectivity" format="ascii" type="Int32">0</DataArray>
<DataArray Name="offsets" format="ascii" type="Int32">0</DataArray>
<DataArray Name="types" format="ascii" type="UInt8">1</DataArray>
</Cells>
<PointData>
<DataArray Name="Points" NumberOfComponents="3" format="ascii" type="Float32">1.2700000000000002 6.4173733696103774 2 8.0803377198211486 1.2700000000000002 2 4.2542820504996355 7.547516187655547 2 9.1442365118319664 7.2082148066538867 2 12.301914109157545 6.4138471801950949 2 15.561848718627099 8.8648182952959917 2 16.966283127331756 2.5032093641458673 2 23.497628446816076 5.0907255634252433 2 26.062456231356482 1.12 2 27.675979377943673 8.5587046365541202 2 29.774401574959203 2.8051475789374787 2 33.186038383413162 5.316256659631077 2 39.407255776620275 5.5657823701341194 2 40.880539916158348 3.7066624221083555 2 45.442856778993402 3.134513212353673 2 47.749333429833698 5.3311036941680543 2 52.156038147077709 3.9891162908997222 2 53.247283266371781 6.1052825637643728 2 58.179551817641041 5.9654571130471465 2 63.082621366084737 1.1205841819979996 2 61.758870587049763 7.6448647462517325 2 65.50582029738419 5.3959126704674052 2 69.552934666768223 1.2700000000000002 2 72.277699731930483 8.079667236125248 2 73.491191221074814 6.0087012912599889 2 76.832815704731871 9.9936412830799171 2 89.617836980300893 4.9186760718187976 2 91.343399858871294 3.2020299661821339 2 94.586737449833294 5.5125694585604172 2 95.69749406902352 7.6235302670347753 2 96.397074948279538 1.2700000000000002 2 1.2700000000000002 3.8815447303985402 2 3.419040466557393 2.5778434639518455 2 6.7414001768375478 7.0653324769863444 2 14.958415645144941 1.2700000000000002 2 14.815266840834344 6.4478778096149236 2 25.365956481378898 6.8126632567195022 2 28.671528492577014 6.2302083549496352 2 40.187458427740388 1.2700000000000002 2 41.011770611379227 7.3320588439907173 2 46.798655564201468 7.6784019124647305 2 55.702765078896618 5.4825747329407726 2 57.21848368392579 3.4475671200791456 2 64.257152272841438 3.2108636602766643 2 66.7985527371426 7.916102219128021 2 69.524410967162524 3.7634092075412653 2 71.193579381813933 10.347768309675688 2 73.710288325042924 10.287145716424241 2 91.317438661725774 9.579025898311631 2 93.77073406035683 10.197599857886466 2 96.205421635845994 3.7847696196372231 2 98.73 8.2074455010400076 2 10.443534617280351 1.12 2 19.045356212439863 5.401779860945279 2 27.916896670502471 3.9725162021073523 2 32.511326093203181 3.1833808834338719 2 37.404465546587666 6.531689191573391 2 36.47063664670501 4.4365604539181236 2 47.8782260263566 2.9673357473189115 2 59.540312863183388 2.9145625134953455 2 73.283752890314588 1.12 2 92.203950663033268 1.12 2 3.4648875126280698 5.1389533054133398 2 7.9089177097416909 4.8314774256259057 2 5.6170236515486485 3.8040558014476082 2 11.942845016420655 3.3742893973800263 2 17.536923240401588 7.2554977642121736 2 24.246959806596138 2.6671941080393622 2 30.690982794352607 7.8110211957142957 2 42.626627601362244 1.8895108163283472 2 45.238803468332392 5.6655345510602917 2 49.576738607260076 7.0828311772207773 2 54.425802235792844 3.3003451825456516 2 60.530894300976883 5.0707913830555373 2 63.011359953765279 5.4243372813035222 2 67.967682064057072 5.6843310220398315 2 67.061736506057116 3.2509126950338727 2 70.27192159588617 6.6089536470355297 2 74.785295863062373 8.0132356026942109 2 87.67057529068687 3.4561472649444975 2 90.827681152318192 7.0789892335734628 2 96.819305204866993 9.8804069239999013 2 98.73 1.2700000000000002 2 1.2700000000000002 1.2700000000000002 2 5.5642089220096462 1.2700000000000002 2 7.1452906280239352 9.564840567738127 2 14.452312684492735 3.7599266686042414 2 16.746166547580739 4.846870031303288 2 25.261795485139267 9.3437895551748156 2 30.842422590706157 4.9278119828783957 2 37.67668373456231 1.2700000000000002 2 42.715522778985985 5.4514510777115159 2 44.07442867868005 7.9217952616985556 2 55.017566576395609 7.9242748032378829 2 55.920288886087846 1.2700000000000002 2 64.290267933470147 7.6170295741830447 2 66.518401497869093 10.427203136975121 2 69.149648340599683 8.846325927980315 2 68.873646921924717 11.363264198070537 2 73.433405148272087 12.791535978776031 2 90.627788901923338 13.024656476699649 2 93.21496296462638 7.7271827989666315 2 97.559803842628085 5.9638612108497338 2 98.73 3.7656778411202936 2 10.241154819532973 5.258437339346246 2 18.681282727066684 1.12 2 28.299807054649111 1.12 2 31.170701592852616 1.12 2 35.192663166639065 6.2776445195195594 2 38.505037035467176 3.50695804918093 2 50.083820482051692 3.2029499609667043 2 61.882976236801916 3.1032523814872621 2 71.678472551735112 4.7402881076790111 2 92.388583306278221 5.3025390469785112 2 9.5643946289881434 3.1405089454054878 2 19.496320729515041 3.2051947559349765 2 25.778531267323764 4.4725125571248876 2 33.376380779317159 1.12 2 36.305946200311716 8.4790427145322997 2 34.753180910251892 2.9997304270891507 2 49.274418024008419 1.12 2 60.855134329079064 1.12 2 71.552688637963286 2.4967890260360259 2 93.731008515922781 3.2592466567987444 2 </DataArray>
<DataArray Name="forces" NumberOfComponents="3" format="ascii" type="Float32">-0.00033397198432735684 0.0042639580910348472 0.0 0.00047595730205595658 -0.0006535577679992622 0.0 -0.0050038700835488472 0.0066038241625855851 0.0 -0.0015321481540303394 0.002727160931868818 0.0 -0.0024602296634547369 0.013365100572708561 0.0 0.0031254686469791011 0.010146454711959003 0.0 0.0035480467584772281 0.0049081347789525012 0.0 -0.00088049802405378366 0.0040515514719531567 0.0 0.0009464166313009276 -0.003603293059304609 0.0 -0.0017356743959063537 0.0067396473260507546 0.0 0.00055862590326570538 0.0036062327354250898 0.0 0.0017410117941949362 -0.0012979035725971099 0.0 0.0012591896230575474 0.0041545768274301922 0.0 -0.00048709009040174937 0.001858607177759894 0.0 0.00089675222875448249 0.0015675921586064873 0.0 0.0027734823197590455 0.009047066662124504 0.0 0.00077864488751541727 0.0057114530001274328 0.0 -0.0035121550826228308 0.0086730938298881424 0.0 -0.0052420842302764517 0.011608647328935786 0.0 -0.0062396238082855077 0.00017871198308288581 0.0 -0.0090114001625204599 0.00010710196111113941 0.0 -0.014710144340544441 0.0042672918611179377 0.0 -0.014052415327523861 -0.079999753048644415 0.0 -0.035661480282566438 0.020331531646958896 0.0 -0.029599321597861196 -0.018468016635071954 0.0 0.0033149920496513391 0.016062358074509821 0.0 -0.022130994009857664 -0.002995542557366053 0.0 0.00046434765210409158 0.015458412753375814 0.0 0.010456003097518523 0.015567446273145723 0.0 0.013018041817583079 0.015089795053206387 0.0 -0.0051702888572004169 -0.0022482284029616585 0.0 -0.032352432154747202 0.0044776158070539279 0.0 -0.00040035521165998622 0.002089772040283492 0.0 -0.0040161253095649437 0.008393104199270373 0.0 0.0044443871989908248 -0.015567005161747915 0.0 -0.00099876598966890801 0.010895427631967197 0.0 -0.0021511838554940689 0.006969679360415963 0.0 -0.001371377054934772 0.006456106947685605 0.0 0.0047879155288373977 -0.012476434347575291 0.0 0.00084950197467709176 0.0047150762487273403 0.0 -0.0028538760837733485 0.0070692471005563001 0.0 -0.0048637818045635765 0.003592476403459101 0.0 -0.0035440538176730106 0.0039059701316544342 0.0 -0.0075584284109204477 0.004168540022496542 0.0 -0.0085279754724404619 0.01400201309715228 0.0 -0.051383032813655277 0.0096999122306412194 0.0 0.0043670612690517238 0.01231682133624214 0.0 -0.015515269910019263 0.028589547446677979 0.0 0.0010076488638817681 0.0048190253730116331 0.0 0.02184228989702618 0.013474478718940535 0.0 -0.00083187821941335671 0.001048477951330693 0.0 0.0048147593553299782 0.0083442522174608357 0.0 0.00087204617822038769 -0.036152093123004957 0.0 -0.00091881811405345945 0.0028892736592513219 0.0 0.00072302398805315637 0.0055311824669873177 0.0 -0.0019929210360001902 -0.00034532416616303747 0.0 0.00091549300624121574 0.0052232803206717342 0.0 -0.0025858452333109385 0.0020365217525914756 0.0 -0.00099876364611396415 0.0075047866020355267 0.0 -0.0032055114245441553 0.0030200512634564036 0.0 -0.014186022876408312 -0.067700908733748316 0.0 -0.016321007419357714 -0.12076766154154958 0.0 0.0010310212610569365 0.0041879823327674211 0.0 -0.00033490454418489551 0.0081411206012109247 0.0 0.00082125915768310872 0.001136859104136718 0.0 -0.00092557233389946141 -0.00016299592418477442 0.0 0.0015070628590163841 0.0048664122504320177 0.0 0.0018343467157468166 0.0039443805291308649 0.0 0.0 0.0 0.0 0.0048474843506796303 0.0051973757419648964 0.0 0.00088849483639858525 0.001551206329148523 0.0 0.0064312795306056851 0.0061756650762211165 0.0 0.0003153539548551524 9.2102218675694028e-05 0.0 -0.0093362807563823133 0.0044281802602653634 0.0 -0.0048105279797130843 0.0049009060074593274 0.0 0.0041356718766765721 -0.0028492507820192317 0.0 -0.0028918789749405763 0.0014614580295909624 0.0 -0.015043199467439317 0.026354892667766555 0.0 0.051126275615496861 -0.0019083029686694109 0.0 0.058289590310866481 -0.014061951717744346 0.0 -0.0056572173850863508 0.029408425460972731 0.0 0.0086735457123274708 0.01828849683835888 0.0 0.20954236759740175 -0.044520495206725297 0.0 -0.021052252054161166 -0.012800879950546667 0.0 -0.00043486063205060979 -0.020564350768603024 0.0 0.0013405706569825156 0.0083491424131984723 0.0 -0.0003457432389013847 -0.00057797245093392621 0.0 -0.003078145067125206 0.0060351539872712853 0.0 -0.0016141342509842101 0.0073095194662729564 0.0 -0.0008217255534510616 0.0059734350487383528 0.0 0.0032508080733760817 -0.00038181197345036819 0.0 -0.00028147654868731532 0.0032301429440169832 0.0 -0.00047728688467896702 0.00092550045762167558 0.0 0.00014898715935943749 0.0052198940051315585 0.0 0.0019570242657054454 -0.019510124898999129 0.0 -0.0077790309985470178 0.0048090408153789775 0.0 -0.0051806917119565149 0.0092628681229459404 0.0 -0.0098307576421019435 0.010421453646014003 0.0 -0.01309178660783995 0.021876737716171393 0.0 -0.016352631248262913 0.0088746954353870668 0.0 0.015708498786947692 0.020030813190021715 0.0 0.01435568781070648 0.013376774061233247 0.0 0.0069063987704791642 0.0044023232546226421 0.0 0.039251260819220396 0.00041559863544023135 0.0 0.0011668311162842133 0.0035643301244042205 0.0 0.0019588307511406245 -0.023311407420411247 0.0 0.0022847493457286644 -0.0011445430248383285 0.0 -0.0015956465891620308 -0.040169096961565107 0.0 2.4204955914904416e-05 0.0050849539930122173 0.0 -0.0016490310022133866 0.0025914280964543599 0.0 0.0015993262337994155 -0.0011329770557284369 0.0 -0.008979863333355733 0.002316806180671691 0.0 0.03064383365298938 0.0048544339175017881 0.0 0.016969752804382086 0.0045711922590665442 0.0 -0.0018285762940028539 0.0027889591340372437 0.0 -0.00026598619507801728 0.0013242838505318538 0.0 0.00012533171828296719 0.0067309854748958189 0.0 -0.00030237419289036449 -0.00047093317343258317 0.0 -0.0020783505583008757 0.0036904915670412917 0.0 -0.00066094553234858353 -0.00055217877665980728 0.0 -0.0019615397026996259 -0.0050598414346487075 0.0 -0.0065164769261408908 -0.018450023596393313 0.0 0.033279465936385623 0.0032226958760217111 0.0 0.0013475885451662254 0.0027011554266660621 0.0 </DataArray>
<DataArray Name="radii" format="ascii" type="Float32">1.2700000000000002 1.2700000000000002 1.2700000000000002 1.12 1.2700000000000002 1.2700000000000002 1.12 1.2700000000000002 1.12 1.2700000000000002 1.12 1.12 1.12 1.2700000000000002 1.2700000000000002 1.2700000000000002 1.12 1.2700000000000002 1.2700000000000002 1.12 1.2700000000000002 1.2700000000000002 1.2700000000000002 1.2700000000000002 1.12 1.2700000000000002 1.2700000000000002 1.2700000000000002 1.12 1.2700000000000002 1.2700000000000002 1.2700000000000002 1.2700000000000002 1.2700000000000002 1.2700000000000002 1.2700000000000002 1.2700000000000002 1.2700000000000002 1.2700000000000002 1.2700000000000002 1.2700000000000002 1.2700000000000002 1.2700000000000002 1.2700000000000002 1.2700000000000002 1.2700000000000002 1.2700000000000002 1.2700000000000002 1.2700000000000002 1.2700000000000002 1.2700000000000002 1.2700000000000002 1.12 1.12 1.12 1.12 1.12 1.12 1.12 1.12 1.12 1.12 1.2700000000000002 1.2700000000000002 1.2700000000000002 1.2700000000000002 1.2700000000000002 1.2700000000000002 1.2700000000000002 1.2700000000000002 1.2700000000000002 1.2700000000000002 1.2700000000000002 1.2700000000000002 1.2700000000000002 1.2700000000000002 1.2700000000000002 1.2700000000000002 1.2700000000000002 1.2700000000000002 1.2700000000000002 1.2700000000000002 1.2700000000000002 1.2700000000000002 1.2700000000000002 1.2700000000000002 1.2700000000000002 1.2700000000000002 1.2700000000000002 1.2700000000000002 1.2700000000000002 1.2700000000000002 1.2700000000000002 1.2700000000000002 1.2700000000000002 1.2700000000000002 1.2700000000000002 1.2700000000000002 1.2700000000000002 1.2700000000000002 1.2700000000000002 1.2700000000000002 1.2700000000000002 1.2700000000000002 1.12 1.12 1.12 1.12 1.12 1.12 1.12 1.12 1.12 1.12 1.12 1.12 1.12 1.12 1.12 1.12 1.12 1.12 1.12 1.12 </DataArray>
</PointData>
<CellData/>
</Piece>
</UnstructuredGrid>
</VTKFile>
