<?xml version="1.0" ?>
<VTKFile byte_order="LittleEndian" type="UnstructuredGrid" version="0.1">
<UnstructuredGrid>
<Piece NumberOfCells="0" NumberOfPoints="52">
<Points>
<DataArray NumberOfComponents="3" format="ascii" type="Float32">12.592804050910974 1.1 2 21.173369440844059 5.4704072108351882 2 20.720922474867766 1 2 21.839861404997809 3.0396452090542789 2 22.704931976901825 1 2 35.441621561433983 1 2 44.568487264985876 1 2 46.65185969382599 1.1 2 51.421506768913225 1 2 53.517104070646276 1.1 2 58.179484073061438 1.1 2 65.341547728352765 1.1 2 67.419162926360272 1 2 80.811729595355231 1.3000000000000003 2 84.781732940029755 3.3434483489092131 2 88.453805723036197 1 2 90.353257257297827 1 2 94.332124456524198 1.1 2 76.092746499640526 13.120527331608358 2 83.233072351724928 12.368976356396985 2 77.749644176285855 1.3000000000000003 2 86.060616855666623 5.9270572397688994 2 77.97215126930918 11.838241970137613 2 78.136475844807734 5.2714360108259433 2 83.504484742144783 5.4028771468594154 2 80.685023294288513 12.044265451138244 2 75.495087979292776 1 2 87.645660419685868 13.353531356167236 2 81.959247633556004 7.4174562664416559 2 80.899325335957442 5.19786835246616 2 83.475140387794625 1 2 79.204891948841947 13.765933795447497 2 74.033772114361398 3.3441036431204085 2 88.947042966217438 8.234583229954012 2 79.47719788291117 9.7782229521543336 2 84.5943579863103 10.165782168793651 2 88.578881165160055 10.465857125760417 2 79.313168871069038 3.2495732411288394 2 86.279902189426465 1.3000000000000003 2 82.737122011200768 14.905753290504874 2 76.54958576670208 3.4721055269726664 2 88.278545699138448 6.3801585396328129 2 75.788207492002897 11.157474663262457 2 82.060902491314863 9.8389288051484538 2 85.347113439482726 13.250241172249941 2 82.40068603578078 3.1941846339855453 2 75.879082720771123 5.6470853442564959 2 79.492872163615772 7.3085036853234921 2 86.503709140151344 11.389058230697183 2 86.6788459065409 8.5927583403586212 2 77.168752263715447 7.1654961499529524 2 84.363093350810814 7.7865351991980969 2 </DataArray>
</Points>
<Cells>
<DataArray Name="connectivity" format="ascii" type="Int32">0</DataArray>
<DataArray Name="offsets" format="ascii" type="Int32">0</DataArray>
<DataArray Name="types" format="ascii" type="UInt8">1</DataArray>
</Cells>
<PointData>
<DataArray Name="Points" NumberOfComponents="3" format="ascii" type="Float32">12.592804050910974 1.1 2 21.173369440844059 5.4704072108351882 2 20.720922474867766 1 2 21.839861404997809 3.0396452090542789 2 22.704931976901825 1 2 35.441621561433983 1 2 44.568487264985876 1 2 46.65185969382599 1.1 2 51.421506768913225 1 2 53.517104070646276 1.1 2 58.179484073061438 1.1 2 65.341547728352765 1.1 2 67.419162926360272 1 2 80.811729595355231 1.3000000000000003 2 84.781732940029755 3.3434483489092131 2 88.453805723036197 1 2 90.353257257297827 1 2 94.332124456524198 1.1 2 76.092746499640526 13.120527331608358 2 83.233072351724928 12.368976356396985 2 77.749644176285855 1.3000000000000003 2 86.060616855666623 5.9270572397688994 2 77.97215126930918 11.838241970137613 2 78.136475844807734 5.2714360108259433 2 83.504484742144783 5.4028771468594154 2 80.685023294288513 12.044265451138244 2 75.495087979292776 1 2 87.645660419685868 13.353531356167236 2 81.959247633556004 7.4174562664416559 2 80.899325335957442 5.19786835246616 2 83.475140387794625 1 2 79.204891948841947 13.765933795447497 2 74.033772114361398 3.3441036431204085 2 88.947042966217438 8.234583229954012 2 79.47719788291117 9.7782229521543336 2 84.5943579863103 10.165782168793651 2 88.578881165160055 10.465857125760417 2 79.313168871069038 3.2495732411288394 2 86.279902189426465 1.3000000000000003 2 82.737122011200768 14.905753290504874 2 76.54958576670208 3.4721055269726664 2 88.278545699138448 6.3801585396328129 2 75.788207492002897 11.157474663262457 2 82.060902491314863 9.8389288051484538 2 85.347113439482726 13.250241172249941 2 82.40068603578078 3.1941846339855453 2 75.879082720771123 5.6470853442564959 2 79.492872163615772 7.3085036853234921 2 86.503709140151344 11.389058230697183 2 86.6788459065409 8.5927583403586212 2 77.168752263715447 7.1654961499529524 2 84.363093350810814 7.7865351991980969 2 </DataArray>
<DataArray Name="forces" NumberOfComponents="3" format="ascii" type="Float32">0.00056535890407497652 -0.0011718068053933868 0.0 0.0017300948865452432 0.0027178421622056099 0.0 0.0016870290220414898 -0.00078536196026757535 0.0 9.7640259475954713e-05 -1.5089907054480827e-06 0.0 0.0024465116572370584 -0.014477125565197377 0.0 -0.0003478490193572092 -0.0051789297515236607 0.0 0.0019007159997252825 -0.0093386281388831913 0.0 0.0028439478211093605 -0.014436567155124064 0.0 -0.001039536436330983 -0.00016985169419049033 0.0 -0.00035746989842464134 -0.0011436912160055115 0.0 0.0008960423299445271 -0.0082881132572703714 0.0 -0.0038383325400740652 -0.019688344070477991 0.0 0.0041094578630881699 -0.015979483241544218 0.0 -0.0351135079116872 -0.27282650715255458 0.0 -0.1651044912653814 0.11631202932854272 0.0 -0.031908355074302272 -0.011418358393551334 0.0 -0.0025243036958471909 -0.005390724136421483 0.0 -0.0021666633762481603 -0.035410471782429849 0.0 -0.016006858423685114 0.016074601046351125 0.0 -0.002831049561444492 0.022217753384693603 0.0 -0.0019894354201669476 -0.18878130568771517 0.0 0.017099455157837142 -0.016825948111684131 0.0 -0.015827432281699177 0.032179460755257176 0.0 -0.012780387212631403 -0.046675902520591478 0.0 -0.0098216076860159415 -0.2035065090206907 0.0 -0.00044860204329072451 0.055155078006054528 0.0 0.013650510688803321 -0.0036921550803795545 0.0 0.0092091567597856628 0.016278047713742624 0.0 -0.054919015590213505 0.092950711679200618 0.0 0.010731496292777025 -0.0015686971598566496 0.0 0.0 0.0 0.0 -0.0069824693415995393 0.024233812580582461 0.0 -0.034526699178818093 0.023731573532801028 0.0 0.016181608528760917 0.018865782632648539 0.0 -0.013957935406174123 0.0017841312036136481 0.0 -0.0080305873851502438 -0.043470574226891191 0.0 0.0067571030131453845 0.010757905627717616 0.0 -0.003129887420549142 0.04590221439411904 0.0 0.010178144856803493 -0.1300987018811319 0.0 -0.0014995395541936365 0.007681956743317073 0.0 0.022269537437137908 0.0020527171079966072 0.0 -0.01838632692132958 0.00035820854461477564 0.0 -0.011814705635901866 0.033003783856415905 0.0 0.023558540888082301 0.012271984682102954 0.0 0.012328391710085573 0.0052085500511824551 0.0 0.096679553374731692 0.07844399998747624 0.0 -0.013218484410410283 0.049461085996819497 0.0 0.023591892806959017 0.056962112894745461 0.0 0.023479696076340546 0.028445790902351286 0.0 -0.020626747996503263 0.0033564404871499242 0.0 -0.05616629146977363 0.062356449983739591 0.0 0.055640792107186803 0.12890708267884202 0.0 </DataArray>
<DataArray Name="radii" format="ascii" type="Float32">1.1 1.1 1 1.2000000000000002 1 1 1 1.1 1 1.1 1.1 1.1 1 1.3000000000000003 1.3000000000000003 1 1 1.1 1 1.3000000000000003 1.3000000000000003 1.3000000000000003 1.3000000000000003 1.2000000000000002 1.3000000000000003 1.3000000000000003 1 1.3000000000000003 1.2000000000000002 1.3000000000000003 1 1 1.3000000000000003 1 1.3000000000000003 1.3000000000000003 1.3000000000000003 1.3000000000000003 1.3000000000000003 1.3000000000000003 1.3000000000000003 1 1 1.3000000000000003 1 1.3000000000000003 1 1.3000000000000003 1 1.3000000000000003 1 1.2000000000000002 </DataArray>
</PointData>
<CellData/>
</Piece>
</UnstructuredGrid>
</VTKFile>
