<?xml version="1.0" ?>
<VTKFile byte_order="LittleEndian" type="UnstructuredGrid" version="0.1">
<UnstructuredGrid>
<Piece NumberOfCells="0" NumberOfPoints="31">
<Points>
<DataArray NumberOfComponents="3" format="ascii" type="Float32">1.35 1.35 2 4.0601127213808912 1.35 2 6.0137297182881646 3.2241166277927755 2 7.5078224543195287 1.1800000000000002 2 12.237421828210957 1.35 2 14.514415509833247 2.8101873089602587 2 16.450035926056202 1.1800000000000002 2 25.822584646000859 2.5810491328968643 2 27.934397623321953 1.1800000000000002 2 29.626955965959802 3.0698565972838656 2 31.285801214830837 1.1800000000000002 2 33.603658481929472 1.5692849836854355 2 37.860014009335792 1.1800000000000002 2 40.45961270115626 1.3544179748975218 2 42.665108753903176 2.8241862947199983 2 48.056196765127289 2.7566509110604223 2 50.030682262804923 1.1800000000000002 2 53.877722197406904 2.6555711401043918 2 57.80222281098505 2.472237290544157 2 62.117169334896126 1.1851347769353131 2 66.18246154283527 2.782166995058371 2 69.469394213507172 2.5695683848096826 2 71.877622055554554 1.35 2 74.258957537711453 2.6323667204871479 2 76.291317471241314 1.1800000000000002 2 77.411767027327613 3.5369339971822917 2 86.419890356993648 2.8384979578129466 2 89.430105194732391 2.7873586797754064 2 91.549582489555036 1.1800000000000002 2 96.128699247773056 1.9960464567711373 2 98.65 1.35 2 </DataArray>
</Points>
<Cells>
<DataArray Name="connectivity" format="ascii" type="Int32">0</DataArray>
<DataArray Name="offsets" format="ascii" type="Int32">0</DataArray>
<DataArray Name="types" format="ascii" type="UInt8">1</DataArray>
</Cells>
<PointData>
<DataArray Name="Points" NumberOfComponents="3" format="ascii" type="Float32">1.35 1.35 2 4.0601127213808912 1.35 2 6.0137297182881646 3.2241166277927755 2 7.5078224543195287 1.1800000000000002 2 12.237421828210957 1.35 2 14.514415509833247 2.8101873089602587 2 16.450035926056202 1.1800000000000002 2 25.822584646000859 2.5810491328968643 2 27.934397623321953 1.1800000000000002 2 29.626955965959802 3.0698565972838656 2 31.285801214830837 1.1800000000000002 2 33.603658481929472 1.5692849836854355 2 37.860014009335792 1.1800000000000002 2 40.45961270115626 1.3544179748975218 2 42.665108753903176 2.8241862947199983 2 48.056196765127289 2.7566509110604223 2 50.030682262804923 1.1800000000000002 2 53.877722197406904 2.6555711401043918 2 57.80222281098505 2.472237290544157 2 62.117169334896126 1.1851347769353131 2 66.18246154283527 2.782166995058371 2 69.469394213507172 2.5695683848096826 2 71.877622055554554 1.35 2 74.258957537711453 2.6323667204871479 2 76.291317471241314 1.1800000000000002 2 77.411767027327613 3.5369339971822917 2 86.419890356993648 2.8384979578129466 2 89.430105194732391 2.7873586797754064 2 91.549582489555036 1.1800000000000002 2 96.128699247773056 1.9960464567711373 2 98.65 1.35 2 </DataArray>
<DataArray Name="forces" NumberOfComponents="3" format="ascii" type="Float32">-0.01170718359221512 0.0 0.0 0.0058853301687733393 -0.0054729136522505507 0.0 0.0037833195614076515 0.0081634055157878017 0.0 -0.0047839408496283958 -0.0024502390450697356 0.0 0.0030743610921364602 -0.0025237509731016578 0.0 0.0036078932085302105 0.00483231115522982 0.0 0.000591144754684708 -0.0020573175961865718 0.0 0.00076353361082308227 0.00069283365462386956 0.0 0.0 0.0 0.0 -6.5337175179133394e-05 7.3391063548748352e-05 0.0 -0.0063707747307531516 -0.0011018130395728822 0.0 -0.0080276984137071621 0.0048373581564463367 0.0 -0.0087099910574290756 -0.00047182793242734689 0.0 0.0159004812660112 0.0010733105317744945 0.0 -0.00073667053060177381 0.00090401661433292654 0.0 0.00021181380951772622 0.0014012214003115498 0.0 -0.0017151547664493979 -0.00036030846779335195 0.0 -0.00018078988866327078 0.0012672740557746944 0.0 -0.0020052754937055612 0.0034453454340431485 0.0 0.00045213720306278276 0.0004004946797394951 0.0 0.0020009020066960258 0.0027635780389749305 0.0 0.00012664268038016459 0.0011497471250133738 0.0 -0.00037647183554511483 -0.00097620009083438752 0.0 0.0011178803446957859 0.00060233985990054402 0.0 -0.0098992582001971863 -0.021528896530616581 0.0 0.0098992582001971863 0.021528896530616581 0.0 0.0089612269942877677 0.010810543097969706 0.0 -0.020242731014540619 0.015900091776386894 0.0 0.020242731014540619 -0.015900091776386894 0.0 0.026972299723703526 0.019229316164638188 0.0 0.016046669322651815 -0.0035184369289233937 0.0 </DataArray>
<DataArray Name="radii" format="ascii" type="Float32">1.35 1.35 1.35 1.1800000000000002 1.35 1.35 1.1800000000000002 1.35 1.1800000000000002 1.35 1.1800000000000002 1.1800000000000002 1.1800000000000002 1.35 1.35 1.35 1.1800000000000002 1.35 1.35 1.1800000000000002 1.35 1.35 1.35 1.35 1.1800000000000002 1.35 1.35 1.35 1.1800000000000002 1.35 1.35 </DataArray>
</PointData>
<CellData/>
</Piece>
</UnstructuredGrid>
</VTKFile>
