<?xml version="1.0" ?>
<VTKFile byte_order="LittleEndian" type="UnstructuredGrid" version="0.1">
<UnstructuredGrid>
<Piece NumberOfCells="0" NumberOfPoints="124">
<Points>
<DataArray NumberOfComponents="3" format="ascii" type="Float32">1.3900000000000003 7.8986665147256172 2 8.0521189105949187 1.3900000000000003 2 3.8835632096252115 9.0881741500676547 2 9.3436066473410939 8.1755487716734354 2 11.969752381779367 8.1220481853926021 2 15.522463264274011 9.6867765754946689 2 17.182432450868003 3.2301930146595583 2 22.838793839366936 5.4424260264758457 2 26.056102150064987 1.2400000000000002 2 27.611126625201578 9.1177828241707459 2 29.715966647087967 3.4255332460117844 2 33.596423177905955 5.4650456638883576 2 39.625302472911848 6.3433626980851718 2 40.956895275030718 4.1070696296723819 2 45.295326724908435 3.5483579367008344 2 48.257142042164148 5.9074714743610119 2 51.83564940243145 5.4084278523857332 2 52.552865319170046 7.9528509874295672 2 57.304972678111177 7.6388879820950848 2 62.451696678413221 1.2400000000000002 2 60.614524661768684 8.2782383712070224 2 64.822507126835774 5.9925436420582239 2 68.806366915236993 1.3900000000000003 2 71.405657023706482 9.7094131140843363 2 72.56068263269843 7.3244611924160887 2 76.064626893465757 11.093198003622998 2 89.77819237925587 5.6655742796266857 2 91.327551133028734 3.6911496497628908 2 95.068924010202693 6.5687361168671732 2 96.016515411974765 8.9989175346036561 2 96.072307313612669 1.5254996781615553 2 1.3900000000000003 5.1424668490110257 2 3.397316650799274 3.3048363376851664 2 6.3134141818748981 7.7692582199754048 2 15.374929514764045 1.3900000000000003 2 14.543475779899683 7.0851709317536322 2 25.088530446890367 7.9499925785683363 2 28.257461382268446 6.4126711704735539 2 40.354074633119929 1.3900000000000003 2 41.124192220998367 8.4961545515605046 2 47.0766272989691 8.5793073065828267 2 54.82056276345309 6.407761709292485 2 56.375908447296915 4.1610414271345313 2 63.812505061996447 3.4418406482217478 2 65.874331666004579 9.5914939404522332 2 68.692779023472426 5.012808727925683 2 70.275475606936411 12.159853086603967 2 73.096521492131615 11.906503596588138 2 91.999531001112672 10.767795207165697 2 94.658101800929586 11.405719659607364 2 96.046672064081164 4.260348387605684 2 98.61 9.3760555075375134 2 10.641776069097711 1.2411594308965375 2 19.616197778214232 6.2226003723783894 2 27.246808687205846 3.5272261985122864 2 32.185170936706818 3.4401009301871577 2 37.41296636839882 7.4223954690558767 2 36.207721070823048 5.2537168876062195 2 47.878766176113459 3.3272480687099883 2 58.782491185559451 3.2618412529573249 2 71.739141352881262 1.2400000000000002 2 91.770720790776537 1.2400000000000002 2 4.0286879723744917 6.0083526458591612 2 8.2403621068906663 5.7941253094542011 2 6.0669735834180054 4.0672388783901434 2 12.13306154809513 3.4387257001628333 2 18.004802108967226 8.4360904640849661 2 24.340533402160606 3.1311655197084054 2 30.652896972211082 8.5189612877052792 2 42.918670217869895 2.2070951057218471 2 45.510027818074072 6.297948042187917 2 49.81425985526338 8.1916585030109044 2 53.677618463881394 3.5446233175585391 2 59.350948461008947 5.8021975901808549 2 62.087247747048352 5.923147491324638 2 67.21357133822103 7.2519008305933212 2 66.548560574263476 3.3516160882926731 2 69.920464689260726 7.4828452467679289 2 74.150492583127232 9.341886096620124 2 88.698393213513441 3.2131647538715451 2 90.803516949749778 8.1650221724769292 2 97.380670876186656 11.850240434894566 2 98.61 1.3900000000000003 2 1.3900000000000003 1.3900000000000003 2 5.321878758565826 1.3900000000000003 2 7.3642110645509327 10.339329758920739 2 14.769763331342791 4.2334395987971316 2 17.023029028472337 5.8433028277716597 2 25.061799203185942 10.720512677380691 2 30.957626424620315 5.7585162223665582 2 37.663088977326446 1.4982651899022692 2 42.737242745122458 6.2339918736433644 2 44.074984162724071 8.6714976122251208 2 55.026424392598813 9.202624838037206 2 55.57823090862631 1.527015759111104 2 63.390753581221425 8.37435205835164 2 64.957461319747367 12.170651906280947 2 68.637520425893896 9.9171700287777522 2 67.626516299547148 12.895348246791571 2 71.872030579625829 14.393364550599111 2 92.769188128318305 15.415320697465251 2 93.415542663274636 8.4860225562447091 2 97.682375855558149 6.7587049459878337 2 98.61 4.1484721743042368 2 10.865801400714368 5.7372534976807756 2 18.672986965959844 1.2416281649508965 2 28.47392501234965 1.2400000000000002 2 30.883373644956841 1.2400000000000002 2 34.945231978045285 7.5347376933939358 2 38.347646637148451 4.0207599702805803 2 50.349117354639333 3.4254895616299548 2 61.225249680911787 3.4538367245775694 2 71.308567312271464 5.368158567982773 2 92.665711175536586 5.9532917114883421 2 9.5328909645827338 3.531343265147409 2 19.551829601057722 3.7596142370846599 2 25.624802317536147 5.3942426205427481 2 33.285699968391185 1.2400000000000002 2 36.28008972273205 9.6232085589042207 2 34.748471204980795 3.2491491458118928 2 49.146161796360317 1.2400000000000002 2 60.123604605076174 1.2400000000000002 2 70.393803544717244 3.1866284414377364 2 93.78550982152386 3.3461751269908921 2 </DataArray>
</Points>
<Cells>
<DataArray Name="connectivity" format="ascii" type="Int32">0</DataArray>
<DataArray Name="offsets" format="ascii" type="Int32">0</DataArray>
<DataArray Name="types" format="ascii" type="UInt8">1</DataArray>
</Cells>
<PointData>
<DataArray Name="Points" NumberOfComponents="3" format="ascii" type="Float32">1.3900000000000003 7.8986665147256172 2 8.0521189105949187 1.3900000000000003 2 3.8835632096252115 9.0881741500676547 2 9.3436066473410939 8.1755487716734354 2 11.969752381779367 8.1220481853926021 2 15.522463264274011 9.6867765754946689 2 17.182432450868003 3.2301930146595583 2 22.838793839366936 5.4424260264758457 2 26.056102150064987 1.2400000000000002 2 27.611126625201578 9.1177828241707459 2 29.715966647087967 3.4255332460117844 2 33.596423177905955 5.4650456638883576 2 39.625302472911848 6.3433626980851718 2 40.956895275030718 4.1070696296723819 2 45.295326724908435 3.5483579367008344 2 48.257142042164148 5.9074714743610119 2 51.83564940243145 5.4084278523857332 2 52.552865319170046 7.9528509874295672 2 57.304972678111177 7.6388879820950848 2 62.451696678413221 1.2400000000000002 2 60.614524661768684 8.2782383712070224 2 64.822507126835774 5.9925436420582239 2 68.806366915236993 1.3900000000000003 2 71.405657023706482 9.7094131140843363 2 72.56068263269843 7.3244611924160887 2 76.064626893465757 11.093198003622998 2 89.77819237925587 5.6655742796266857 2 91.327551133028734 3.6911496497628908 2 95.068924010202693 6.5687361168671732 2 96.016515411974765 8.9989175346036561 2 96.072307313612669 1.5254996781615553 2 1.3900000000000003 5.1424668490110257 2 3.397316650799274 3.3048363376851664 2 6.3134141818748981 7.7692582199754048 2 15.374929514764045 1.3900000000000003 2 14.543475779899683 7.0851709317536322 2 25.088530446890367 7.9499925785683363 2 28.257461382268446 6.4126711704735539 2 40.354074633119929 1.3900000000000003 2 41.124192220998367 8.4961545515605046 2 47.0766272989691 8.5793073065828267 2 54.82056276345309 6.407761709292485 2 56.375908447296915 4.1610414271345313 2 63.812505061996447 3.4418406482217478 2 65.874331666004579 9.5914939404522332 2 68.692779023472426 5.012808727925683 2 70.275475606936411 12.159853086603967 2 73.096521492131615 11.906503596588138 2 91.999531001112672 10.767795207165697 2 94.658101800929586 11.405719659607364 2 96.046672064081164 4.260348387605684 2 98.61 9.3760555075375134 2 10.641776069097711 1.2411594308965375 2 19.616197778214232 6.2226003723783894 2 27.246808687205846 3.5272261985122864 2 32.185170936706818 3.4401009301871577 2 37.41296636839882 7.4223954690558767 2 36.207721070823048 5.2537168876062195 2 47.878766176113459 3.3272480687099883 2 58.782491185559451 3.2618412529573249 2 71.739141352881262 1.2400000000000002 2 91.770720790776537 1.2400000000000002 2 4.0286879723744917 6.0083526458591612 2 8.2403621068906663 5.7941253094542011 2 6.0669735834180054 4.0672388783901434 2 12.13306154809513 3.4387257001628333 2 18.004802108967226 8.4360904640849661 2 24.340533402160606 3.1311655197084054 2 30.652896972211082 8.5189612877052792 2 42.918670217869895 2.2070951057218471 2 45.510027818074072 6.297948042187917 2 49.81425985526338 8.1916585030109044 2 53.677618463881394 3.5446233175585391 2 59.350948461008947 5.8021975901808549 2 62.087247747048352 5.923147491324638 2 67.21357133822103 7.2519008305933212 2 66.548560574263476 3.3516160882926731 2 69.920464689260726 7.4828452467679289 2 74.150492583127232 9.341886096620124 2 88.698393213513441 3.2131647538715451 2 90.803516949749778 8.1650221724769292 2 97.380670876186656 11.850240434894566 2 98.61 1.3900000000000003 2 1.3900000000000003 1.3900000000000003 2 5.321878758565826 1.3900000000000003 2 7.3642110645509327 10.339329758920739 2 14.769763331342791 4.2334395987971316 2 17.023029028472337 5.8433028277716597 2 25.061799203185942 10.720512677380691 2 30.957626424620315 5.7585162223665582 2 37.663088977326446 1.4982651899022692 2 42.737242745122458 6.2339918736433644 2 44.074984162724071 8.6714976122251208 2 55.026424392598813 9.202624838037206 2 55.57823090862631 1.527015759111104 2 63.390753581221425 8.37435205835164 2 64.957461319747367 12.170651906280947 2 68.637520425893896 9.9171700287777522 2 67.626516299547148 12.895348246791571 2 71.872030579625829 14.393364550599111 2 92.769188128318305 15.415320697465251 2 93.415542663274636 8.4860225562447091 2 97.682375855558149 6.7587049459878337 2 98.61 4.1484721743042368 2 10.865801400714368 5.7372534976807756 2 18.672986965959844 1.2416281649508965 2 28.47392501234965 1.2400000000000002 2 30.883373644956841 1.2400000000000002 2 34.945231978045285 7.5347376933939358 2 38.347646637148451 4.0207599702805803 2 50.349117354639333 3.4254895616299548 2 61.225249680911787 3.4538367245775694 2 71.308567312271464 5.368158567982773 2 92.665711175536586 5.9532917114883421 2 9.5328909645827338 3.531343265147409 2 19.551829601057722 3.7596142370846599 2 25.624802317536147 5.3942426205427481 2 33.285699968391185 1.2400000000000002 2 36.28008972273205 9.6232085589042207 2 34.748471204980795 3.2491491458118928 2 49.146161796360317 1.2400000000000002 2 60.123604605076174 1.2400000000000002 2 70.393803544717244 3.1866284414377364 2 93.78550982152386 3.3461751269908921 2 </DataArray>
<DataArray Name="forces" NumberOfComponents="3" format="ascii" type="Float32">-0.016045787855715657 0.016796898879786769 0.0 -0.001334566927515015 -0.020319691439385154 0.0 0.0021867021854938551 0.01515283042588679 0.0 -0.0010208249792811679 0.0053532968369088474 0.0 -0.00066315671413219037 0.0040803170525043715 0.0 -0.00025108183302905665 0.00047314339866983562 0.0 0.0010254134828881767 0.0062459313009749495 0.0 -0.0067426500868552472 0.010028661295293936 0.0 -0.010673351473107037 -0.057445746639997609 0.0 0.0002302018836451297 0.00010698263427286595 0.0 -0.003175082369689471 0.0014823156005060465 0.0 0.0015539135109096346 0.0017199389855815355 0.0 -0.00096671335468067818 0.0095487885522887849 0.0 -0.0060483203751600725 0.0062464071693237189 0.0 0.0057092813869003426 0.006366895911172895 0.0 -0.00023013936064692278 0.0083345567271086718 0.0 -0.00591336084896423 0.0084304935089787938 0.0 -0.0064699095196202299 0.013626985978571121 0.0 -0.0039741127233475712 0.01543967345345815 0.0 -0.0024061247634245553 -0.02325179032802055 0.0 -0.0081823123694625098 0.0029831080021626042 0.0 0.0041113314939403098 0.007305094911930445 0.0 0.0021458903086124803 -0.14056432874877017 0.0 -0.096015250861339899 0.039979755838371531 0.0 -0.03300565953235593 -0.087779591046106359 0.0 -0.051131502603380924 -0.1169634846937723 0.0 0.045008855066196618 -0.11720947265560983 0.0 -0.091688000501057187 0.043710728489730906 0.0 0.0068047905820046006 0.0010861602877262917 0.0 -0.00020425067237636596 0.013406948913787665 0.0 0.00073572442860100895 0.014243979492317474 0.0 -0.047297336549128342 0.015227932157838141 0.0 -0.0030711184072495928 0.0059607981398388105 0.0 -0.0023100128150890169 0.0044433441301374218 0.0 0.0037655697376032873 -0.032041101849477442 0.0 -0.0013526948549947753 0.00084317590470219536 0.0 -0.0039969733388242491 0.0089791903425090278 0.0 -0.0016635677015293703 0.00040365360608901407 0.0 0.0026285218498925539 -0.030390065749901374 0.0 0.0028887309461872171 0.0071039223861897515 0.0 -0.0078197212034452797 0.012635117266248675 0.0 -0.0042856917953331235 0.016246248463485644 0.0 -0.0079258611134455214 0.010821022186219307 0.0 -0.013813426188210493 -0.0038859756143528198 0.0 -0.023718315403716519 0.037294388315200558 0.0 -0.044874750419959197 0.016527547361644107 0.0 -0.0093543143772923353 0.0052740760955088395 0.0 -0.0018526119243084827 0.052751337309815613 0.0 0.021610902343389624 0.0073307069772020894 0.0 0.01039810254848977 0.020734206294872465 0.0 -0.010490558643893061 0.010034652203741064 0.0 0.16677413766789018 0.010647880160438689 0.0 0.00023032099893059016 0.00012745587356955464 0.0 0.0023707387442336554 0.012624941055463437 0.0 -0.0044690468256739484 -0.0049788338264517232 0.0 -0.0018516201895181893 0.0024094944285248804 0.0 -0.0048392395016471062 0.0036158463034695592 0.0 -0.0085361919682014429 0.0055534893236878682 0.0 0.0062696400677469469 0.0071362962308362046 0.0 -0.012072170729522429 0.00079886975204772337 0.0 -0.036712995625095786 -0.12062856110144632 0.0 0.0044692752231075272 -0.11997464496021464 0.0 0.0036847829119693708 0.0046887184007481045 0.0 -0.00047951745071396316 0.0040902213340863643 0.0 0.00072469489925435014 -0.00058928437808161661 0.0 0.00064920267990935254 0.0015123269373759662 0.0 0.0030942156417239431 0.0070393380943330336 0.0 0.0027778765855748806 0.01601084399459022 0.0 -0.000303298071719871 0.0027443158325071849 0.0 0.00095373156150824201 0.013301133312257456 0.0 -0.00074317537490074153 0.0071586093015684211 0.0 -0.0073445415932535466 0.013535799411385701 0.0 -0.0099872942822863842 0.0033176303606082484 0.0 -0.0074256781563243474 0.0048361952825010058 0.0 -0.01436786707418625 -0.0048993552746597977 0.0 -0.023614562590552148 0.034322834830669294 0.0 0.010992166836044419 0.0081332563179492695 0.0 0.0066253295900004713 0.04863367818040841 0.0 0.17932061244439751 0.055519874155252155 0.0 0.095648406923360879 0.065653797528175448 0.0 -0.0057223304717038265 0.056874971949447801 0.0 0.014869568506249363 0.019712321840030991 0.0 0.23838552235421442 -0.034824048139184223 0.0 -0.0048094675003872607 -0.0045789577119871609 0.0 -0.0039116998101767489 -0.048214016456608916 0.0 0.0013363853988600113 0.0032739624707806259 0.0 0.00059352214610026814 0.0080225840820065553 0.0 0.0023849737643561429 0.0068947984578630536 0.0 -9.8205931991197744e-05 0.0095906823828808534 0.0 -0.0011369804394956988 0.0027123910093793178 0.0 0.0003319483007315268 0.008127702783123681 0.0 -0.0016106199375425052 0.0034472430376588869 0.0 -0.0032301153352555828 0.0053481797661850509 0.0 -0.0058148978721291097 0.013405695191460856 0.0 -0.0052664054195797581 0.010595337563824258 0.0 0.0014056450546360861 0.0067936381293605061 0.0 -0.026365198194855353 0.037333211795522667 0.0 -0.0035441408869073725 0.017047730575757807 0.0 -0.024577162466585416 0.013405354815882122 0.0 -0.0080650230767650953 0.020072243541731274 0.0 0.012684140658880991 0.019908970870954088 0.0 -0.030282523047226451 -3.5864188786219331e-05 0.0 0.0032411772626573317 0.0076187261216381381 0.0 0.22236424091470627 0.0026948130230384296 0.0 0.00069701973917106778 0.002848553477913103 0.0 -0.0041436174162898789 0.00045008609393319243 0.0 -0.0083710168897219717 0.0 0.0 -0.0060763411272005269 -0.0019350908554176603 0.0 -0.0052840776486124232 0.007567997285275966 0.0 -0.006172246180774936 0.0099528087346996818 0.0 0.0066620190811683046 -0.0010788904481471911 0.0 0.001995663658686649 0.0056055110602242723 0.0 0.020776972274312203 0.062225595527061972 0.0 0.0043995369120502972 0.0077195227393696553 0.0 -0.0011584030037356495 0.0020161333389999321 0.0 0.0027453664453361741 0.01191940227146332 0.0 0.013114977585915637 0.011377800107735713 0.0 -0.0038078002867971833 -0.0080575915009054137 0.0 -0.0013522467020538726 0.0055648521607333142 0.0 -0.00032145395693606118 -0.00043998759731171428 0.0 -0.0045697028345848649 -0.014768719009545302 0.0 -0.010211731248761225 -0.048238124410116705 0.0 -0.022333634969592252 -0.0066438255682578773 0.0 0.0347469703270748 -0.00067345716848118964 0.0 </DataArray>
<DataArray Name="radii" format="ascii" type="Float32">1.3900000000000003 1.3900000000000003 1.3900000000000003 1.2400000000000002 1.3900000000000003 1.3900000000000003 1.2400000000000002 1.3900000000000003 1.2400000000000002 1.3900000000000003 1.2400000000000002 1.2400000000000002 1.2400000000000002 1.3900000000000003 1.3900000000000003 1.3900000000000003 1.2400000000000002 1.3900000000000003 1.3900000000000003 1.2400000000000002 1.3900000000000003 1.3900000000000003 1.3900000000000003 1.3900000000000003 1.2400000000000002 1.3900000000000003 1.3900000000000003 1.3900000000000003 1.2400000000000002 1.3900000000000003 1.3900000000000003 1.3900000000000003 1.3900000000000003 1.3900000000000003 1.3900000000000003 1.3900000000000003 1.3900000000000003 1.3900000000000003 1.3900000000000003 1.3900000000000003 1.3900000000000003 1.3900000000000003 1.3900000000000003 1.3900000000000003 1.3900000000000003 1.3900000000000003 1.3900000000000003 1.3900000000000003 1.3900000000000003 1.3900000000000003 1.3900000000000003 1.3900000000000003 1.2400000000000002 1.2400000000000002 1.2400000000000002 1.2400000000000002 1.2400000000000002 1.2400000000000002 1.2400000000000002 1.2400000000000002 1.2400000000000002 1.2400000000000002 1.3900000000000003 1.3900000000000003 1.3900000000000003 1.3900000000000003 1.3900000000000003 1.3900000000000003 1.3900000000000003 1.3900000000000003 1.3900000000000003 1.3900000000000003 1.3900000000000003 1.3900000000000003 1.3900000000000003 1.3900000000000003 1.3900000000000003 1.3900000000000003 1.3900000000000003 1.3900000000000003 1.3900000000000003 1.3900000000000003 1.3900000000000003 1.3900000000000003 1.3900000000000003 1.3900000000000003 1.3900000000000003 1.3900000000000003 1.3900000000000003 1.3900000000000003 1.3900000000000003 1.3900000000000003 1.3900000000000003 1.3900000000000003 1.3900000000000003 1.3900000000000003 1.3900000000000003 1.3900000000000003 1.3900000000000003 1.3900000000000003 1.3900000000000003 1.3900000000000003 1.3900000000000003 1.3900000000000003 1.2400000000000002 1.2400000000000002 1.2400000000000002 1.2400000000000002 1.2400000000000002 1.2400000000000002 1.2400000000000002 1.2400000000000002 1.2400000000000002 1.2400000000000002 1.2400000000000002 1.2400000000000002 1.2400000000000002 1.2400000000000002 1.2400000000000002 1.2400000000000002 1.2400000000000002 1.2400000000000002 1.2400000000000002 1.2400000000000002 </DataArray>
</PointData>
<CellData/>
</Piece>
</UnstructuredGrid>
</VTKFile>
