<?xml version="1.0" ?>
<VTKFile byte_order="LittleEndian" type="UnstructuredGrid" version="0.1">
<UnstructuredGrid>
<Piece NumberOfCells="0" NumberOfPoints="20">
<Points>
<DataArray NumberOfComponents="3" format="ascii" type="Float32">9.7243848307205774 1.1 2 18.675105807532688 2.4883595307414983 2 20.147068598560711 1 2 22.083743079606837 2.0555193829027711 2 23.993044100825102 1 2 35.354542537809493 1 2 44.169995436564967 1 2 46.269649587780179 1.1014561437567547 2 52.34925887647978 1 2 55.008202176526787 1.1 2 59.62886628309969 1.1 2 64.465755881420563 1.1 2 67.674904105028347 1 2 79.425375980360784 1.5030767808634322 2 82.902132865222143 1.5000000000000004 2 85.343618583345091 1 2 87.887968981660435 1 2 93.820724123107823 1.1 2 79.470064709564838 4.0077114033827019 2 81.947847444630071 4.350671705415821 2 </DataArray>
</Points>
<Cells>
<DataArray Name="connectivity" format="ascii" type="Int32">0</DataArray>
<DataArray Name="offsets" format="ascii" type="Int32">0</DataArray>
<DataArray Name="types" format="ascii" type="UInt8">1</DataArray>
</Cells>
<PointData>
<DataArray Name="Points" NumberOfComponents="3" format="ascii" type="Float32">9.7243848307205774 1.1 2 18.675105807532688 2.4883595307414983 2 20.147068598560711 1 2 22.083743079606837 2.0555193829027711 2 23.993044100825102 1 2 35.354542537809493 1 2 44.169995436564967 1 2 46.269649587780179 1.1014561437567547 2 52.34925887647978 1 2 55.008202176526787 1.1 2 59.62886628309969 1.1 2 64.465755881420563 1.1 2 67.674904105028347 1 2 79.425375980360784 1.5030767808634322 2 82.902132865222143 1.5000000000000004 2 85.343618583345091 1 2 87.887968981660435 1 2 93.820724123107823 1.1 2 79.470064709564838 4.0077114033827019 2 81.947847444630071 4.350671705415821 2 </DataArray>
<DataArray Name="forces" NumberOfComponents="3" format="ascii" type="Float32">0.032107925144956584 -0.0082163619268595649 0.0 0.005591548119269504 0.0058364293155852755 0.0 -0.0046313033912588203 -0.0053484083524020752 0.0 0.003712135239440298 0.0050168166841824974 0.0 -0.012032703365271666 -0.014941716401607524 0.0 -0.069286277651224651 -0.028820628867702883 0.0 0.0 0.0 0.0 0.0 0.0 0.0 -0.024143643373154056 -0.034417800091015242 0.0 -0.0015838801530230436 -0.0006899096564285098 0.0 -0.00021136702043043321 -2.0597383955675701e-05 0.0 0.0011529240736184317 -0.0019959421414612161 0.0 0.0 0.0 0.0 -6.5119025381488431e-06 -0.00055460314450381828 0.0 0.003621636031677184 -0.010870700088443701 0.0 -0.012756110398346898 -0.017163453631468796 0.0 0.0 0.0 0.0 0.0 0.0 0.0 0.011476033854562587 0.0034578180659636361 0.0 -0.003621636031677184 0.010870700088443701 0.0 </DataArray>
<DataArray Name="radii" format="ascii" type="Float32">1.1 1.1 1 1.2000000000000002 1 1 1 1.1 1 1.1 1.1 1.1 1 1.5000000000000004 1.5000000000000004 1 1 1.1 1 1.5000000000000004 </DataArray>
</PointData>
<CellData/>
</Piece>
</UnstructuredGrid>
</VTKFile>
