<?xml version="1.0" ?>
<VTKFile byte_order="LittleEndian" type="UnstructuredGrid" version="0.1">
<UnstructuredGrid>
<Piece NumberOfCells="0" NumberOfPoints="18">
<Points>
<DataArray NumberOfComponents="3" format="ascii" type="Float32">9.805028699237706 1.1 2 18.416766503169576 2.2189738669136552 2 20.129184208823521 1 2 22.114579842819396 1.9587337479308722 2 24.095634071306016 1 2 35.659112544473082 1 2 44.151610130842627 1 2 46.250099670689501 1.1 2 52.183433518455942 1 2 55.778362059778217 1.1 2 59.856301015484725 1.1 2 64.366649596212952 1.1 2 67.733471339863897 1 2 79.580825627826925 1.5000000000000004 2 82.539082956267563 2.0435591557306498 2 84.830919406938264 1 2 87.91878271983353 1 2 93.694464237236375 1.1 2 </DataArray>
</Points>
<Cells>
<DataArray Name="connectivity" format="ascii" type="Int32">0</DataArray>
<DataArray Name="offsets" format="ascii" type="Int32">0</DataArray>
<DataArray Name="types" format="ascii" type="UInt8">1</DataArray>
</Cells>
<PointData>
<DataArray Name="Points" NumberOfComponents="3" format="ascii" type="Float32">9.805028699237706 1.1 2 18.416766503169576 2.2189738669136552 2 20.129184208823521 1 2 22.114579842819396 1.9587337479308722 2 24.095634071306016 1 2 35.659112544473082 1 2 44.151610130842627 1 2 46.250099670689501 1.1 2 52.183433518455942 1 2 55.778362059778217 1.1 2 59.856301015484725 1.1 2 64.366649596212952 1.1 2 67.733471339863897 1 2 79.580825627826925 1.5000000000000004 2 82.539082956267563 2.0435591557306498 2 84.830919406938264 1 2 87.91878271983353 1 2 93.694464237236375 1.1 2 </DataArray>
<DataArray Name="forces" NumberOfComponents="3" format="ascii" type="Float32">0.0 0.0 0.0 0.0 0.0 0.0 0.0 0.0 0.0 0.0 0.0 0.0 0.0 0.0 0.0 -0.034421306766277845 -0.0025247960135086475 0.0 0.0 0.0 0.0 0.0 0.0 0.0 -0.00034701711073172276 -0.00032754693273169604 0.0 0.0 0.0 0.0 0.0 0.0 0.0 0.0 0.0 0.0 0.0 0.0 0.0 0.0 0.0 0.0 0.0 0.0 0.0 0.0 0.0 0.0 0.0010614803046614786 -0.0011954734380628417 0.0 -0.052069255049003775 -0.016018391342372373 0.0 </DataArray>
<DataArray Name="radii" format="ascii" type="Float32">1.1 1.1 1 1.2000000000000002 1 1 1 1.1 1 1.1 1.1 1.1 1 1.5000000000000004 1.5000000000000004 1 1 1.1 </DataArray>
</PointData>
<CellData/>
</Piece>
</UnstructuredGrid>
</VTKFile>
