<?xml version="1.0" ?>
<VTKFile byte_order="LittleEndian" type="UnstructuredGrid" version="0.1">
<UnstructuredGrid>
<Piece NumberOfCells="0" NumberOfPoints="18">
<Points>
<DataArray NumberOfComponents="3" format="ascii" type="Float32">9.7891665767429856 1.1 2 18.264062833773373 2.0268860688832633 2 20.115798997432346 1 2 22.112227906344859 1.8815543592226616 2 24.143765685450482 1 2 35.839348999630324 1 2 44.150091485758466 1 2 46.216942149828675 1.1 2 52.098088847109423 1 2 55.806641317441127 1.1 2 59.923840708531387 1.1002249063818015 2 64.246091227781704 1.1 2 67.794001942994072 1 2 79.924635759919028 1.2000000000000002 2 82.264953178626243 1.596873770254285 2 84.412506844601197 1 2 87.993222480896861 1 2 94.141329706544141 1.1002208052396873 2 </DataArray>
</Points>
<Cells>
<DataArray Name="connectivity" format="ascii" type="Int32">0</DataArray>
<DataArray Name="offsets" format="ascii" type="Int32">0</DataArray>
<DataArray Name="types" format="ascii" type="UInt8">1</DataArray>
</Cells>
<PointData>
<DataArray Name="Points" NumberOfComponents="3" format="ascii" type="Float32">9.7891665767429856 1.1 2 18.264062833773373 2.0268860688832633 2 20.115798997432346 1 2 22.112227906344859 1.8815543592226616 2 24.143765685450482 1 2 35.839348999630324 1 2 44.150091485758466 1 2 46.216942149828675 1.1 2 52.098088847109423 1 2 55.806641317441127 1.1 2 59.923840708531387 1.1002249063818015 2 64.246091227781704 1.1 2 67.794001942994072 1 2 79.924635759919028 1.2000000000000002 2 82.264953178626243 1.596873770254285 2 84.412506844601197 1 2 87.993222480896861 1 2 94.141329706544141 1.1002208052396873 2 </DataArray>
<DataArray Name="forces" NumberOfComponents="3" format="ascii" type="Float32">-0.050128393909504104 -0.0028347222569172713 0.0 -0.013686429827727499 0.0076576162344190778 0.0 0.013686429827727499 -0.0076576162344190778 0.0 -0.011090258841756533 0.004844107034527958 0.0 0.011090258841756533 -0.004844107034527958 0.0 0.083523088038247706 -0.011222531734445897 0.0 0.024142357630136387 -0.017401245823275287 0.0 -0.011699348747745638 -0.0077244296462368233 0.0 0.0041328598566103252 -0.00090356181189239651 0.0 -0.003809493161410995 -0.0030358896215792893 0.0 -0.01009467013707979 0.00018784875527563599 0.0 -0.0047950923083854508 -0.0035190862091407892 0.0 -0.0019658297962081447 -0.0024151471729373878 0.0 0.015098222055742856 -0.010346619537268955 0.0 -0.02132286951679491 0.005997603889750713 0.0 0.02132286951679491 -0.005997603889750713 0.0 -0.0067610529826980861 -0.013876516709630126 0.0 0.058819358834993549 0.00018442335473711682 0.0 </DataArray>
<DataArray Name="radii" format="ascii" type="Float32">1.1 1.1 1 1.2000000000000002 1 1 1 1.1 1 1.1 1.1 1.1 1 1.2000000000000002 1.2000000000000002 1 1 1.1 </DataArray>
</PointData>
<CellData/>
</Piece>
</UnstructuredGrid>
</VTKFile>
