<?xml version="1.0" ?>
<VTKFile byte_order="LittleEndian" type="UnstructuredGrid" version="0.1">
<UnstructuredGrid>
<Piece NumberOfCells="0" NumberOfPoints="18">
<Points>
<DataArray NumberOfComponents="3" format="ascii" type="Float32">9.7861166777584945 1.1 2 18.365600818982724 2.1531277719424695 2 20.125367618953153 1 2 22.111900126976444 1.9331686818763711 2 24.108324616717766 1 2 35.701805751079938 1 2 44.151791695878039 1 2 46.241395170701566 1.1 2 52.151002996872712 1 2 55.785963622486733 1.1 2 59.875541297888176 1.1 2 64.314008733900707 1.1 2 67.751902039763678 1 2 79.683432276661449 1.4000000000000004 2 82.445676404870866 1.8967052713746468 2 84.689981184722072 1 2 87.938869734637109 1 2 93.837128311264479 1.1 2 </DataArray>
</Points>
<Cells>
<DataArray Name="connectivity" format="ascii" type="Int32">0</DataArray>
<DataArray Name="offsets" format="ascii" type="Int32">0</DataArray>
<DataArray Name="types" format="ascii" type="UInt8">1</DataArray>
</Cells>
<PointData>
<DataArray Name="Points" NumberOfComponents="3" format="ascii" type="Float32">9.7861166777584945 1.1 2 18.365600818982724 2.1531277719424695 2 20.125367618953153 1 2 22.111900126976444 1.9331686818763711 2 24.108324616717766 1 2 35.701805751079938 1 2 44.151791695878039 1 2 46.241395170701566 1.1 2 52.151002996872712 1 2 55.785963622486733 1.1 2 59.875541297888176 1.1 2 64.314008733900707 1.1 2 67.751902039763678 1 2 79.683432276661449 1.4000000000000004 2 82.445676404870866 1.8967052713746468 2 84.689981184722072 1 2 87.938869734637109 1 2 93.837128311264479 1.1 2 </DataArray>
<DataArray Name="forces" NumberOfComponents="3" format="ascii" type="Float32">-0.027090944882380813 -0.0021855240460846984 0.0 -0.0018721253284549049 0.0013916614946461506 0.0 0.0020101506129403075 -0.0013192811787973424 0.0 -0.0023165557387844417 0.0010841671206881175 0.0 0.0015906804428740848 -0.0016636256892608075 0.0 -0.045940929535901127 -0.0027035620788823859 0.0 0.003335525418821878 -0.0031420040357511155 0.0 -0.0026094593476259456 -0.0020576989462349014 0.0 -0.0014277783151306382 -0.0012609788264567106 0.0 -0.0040553535248537935 -0.0043828575797963225 0.0 -0.0086764560019347535 -0.00051580371372301494 0.0 -0.0059718291970614588 -0.0050166646319702683 0.0 0.0001933236285303092 -0.0016250630058645176 0.0 0.0019729848113657139 -0.0016287850676289216 0.0 0.0 0.0 0.0 -0.0079474599979083935 -0.0079428737222999191 0.0 -0.0025517428600069867 -0.0020593646112104362 0.0 -0.065643524528962674 -0.01411891418332087 0.0 </DataArray>
<DataArray Name="radii" format="ascii" type="Float32">1.1 1.1 1 1.2000000000000002 1 1 1 1.1 1 1.1 1.1 1.1 1 1.4000000000000004 1.4000000000000004 1 1 1.1 </DataArray>
</PointData>
<CellData/>
</Piece>
</UnstructuredGrid>
</VTKFile>
