<?xml version="1.0" ?>
<VTKFile byte_order="LittleEndian" type="UnstructuredGrid" version="0.1">
<UnstructuredGrid>
<Piece NumberOfCells="0" NumberOfPoints="23">
<Points>
<DataArray NumberOfComponents="3" format="ascii" type="Float32">11.117007948615914 1.100039763966884 2 19.494267508806349 3.1381505642044898 2 20.115149676282432 1 2 21.927344261406599 2.2471184980068402 2 23.739814013455046 1 2 35.047727601672591 1 2 44.22309628732684 1 2 46.327066347681971 1.1042782803254385 2 52.561526962955575 1 2 54.689906487304576 1.1 2 58.868055578812793 1.1 2 64.808789635357215 1.1 2 67.667989334864359 1 2 80.907143863483185 1.5000000000000004 2 84.013771857976408 1.5000000000000004 2 86.314652599279995 1 2 88.365358057387624 1 2 94.115339546455687 1.1 2 78.73026001546738 5.4819842390863167 2 82.546162407628273 7.0969075894090263 2 78.095744564629371 1.5000000000000004 2 84.016874343796786 4.5007583152788291 2 81.036680143242251 4.4966234581078988 2 </DataArray>
</Points>
<Cells>
<DataArray Name="connectivity" format="ascii" type="Int32">0</DataArray>
<DataArray Name="offsets" format="ascii" type="Int32">0</DataArray>
<DataArray Name="types" format="ascii" type="UInt8">1</DataArray>
</Cells>
<PointData>
<DataArray Name="Points" NumberOfComponents="3" format="ascii" type="Float32">11.117007948615914 1.100039763966884 2 19.494267508806349 3.1381505642044898 2 20.115149676282432 1 2 21.927344261406599 2.2471184980068402 2 23.739814013455046 1 2 35.047727601672591 1 2 44.22309628732684 1 2 46.327066347681971 1.1042782803254385 2 52.561526962955575 1 2 54.689906487304576 1.1 2 58.868055578812793 1.1 2 64.808789635357215 1.1 2 67.667989334864359 1 2 80.907143863483185 1.5000000000000004 2 84.013771857976408 1.5000000000000004 2 86.314652599279995 1 2 88.365358057387624 1 2 94.115339546455687 1.1 2 78.73026001546738 5.4819842390863167 2 82.546162407628273 7.0969075894090263 2 78.095744564629371 1.5000000000000004 2 84.016874343796786 4.5007583152788291 2 81.036680143242251 4.4966234581078988 2 </DataArray>
<DataArray Name="forces" NumberOfComponents="3" format="ascii" type="Float32">0.0019833279900947605 3.6768373835165878e-05 0.0 0.0 0.0 0.0 -2.6558810792451545e-05 -1.82695179782219e-05 0.0 -0.0003425425384762492 0.00027224105267896237 0.0 6.2591711380430119e-05 -0.00074189787921867686 0.0 -0.00050908044632906688 -0.0010530650961335429 0.0 -0.005640478622943871 -0.00028036980347584422 0.0 0.005640478622943871 0.00028036980347584422 0.0 0.00024439162934859082 -0.00041934554490566898 0.0 -1.6637096954701686e-05 -7.8507766241163918e-06 0.0 0.00026074752973236125 -0.00012305807718061886 0.0 1.9203262321535911e-05 -9.797720770294277e-06 0.0 -0.0049123949251339552 -0.0037764845620611165 0.0 -0.092438629942122125 -0.0049602567799943839 0.0 0.091618033016711189 -0.019458433452451192 0.0 -0.047816845027449692 -0.0063642316640602535 0.0 0.042049767337472801 -0.0093017721135968748 0.0 0.0080788191837342892 -0.0063431484964512359 0.0 -0.0079268422572699206 0.0034038462339610583 0.0 0.0 0.0 0.0 0.092466563868154827 -0.040298880237392878 0.0 -0.015235202296830211 0.011882756949482723 0.0 0.0079593121368762669 0.0012365420464634045 0.0 </DataArray>
<DataArray Name="radii" format="ascii" type="Float32">1.1 1.1 1 1.2000000000000002 1 1 1 1.1 1 1.1 1.1 1.1 1 1.5000000000000004 1.5000000000000004 1 1 1.1 1 1.5000000000000004 1.5000000000000004 1.5000000000000004 1.5000000000000004 </DataArray>
</PointData>
<CellData/>
</Piece>
</UnstructuredGrid>
</VTKFile>
