<?xml version="1.0" ?>
<VTKFile byte_order="LittleEndian" type="UnstructuredGrid" version="0.1">
<UnstructuredGrid>
<Piece NumberOfCells="0" NumberOfPoints="37">
<Points>
<DataArray NumberOfComponents="3" format="ascii" type="Float32">12.511499627501708 1.1 2 20.850899702007506 5.2360431997486776 2 20.853719536115253 1 2 22.138956762471576 3.078399087813255 2 22.852357192569951 1 2 35.338704607130779 1 2 44.4882370079522 1 2 46.589321223516947 1.1 2 51.405855800087785 1 2 53.479905030159586 1.1319986352119504 2 57.863224074171455 1.1 2 65.639467191253459 1.1003036570572871 2 67.715167851150383 1 2 80.384900493002078 1.5000000000000004 2 85.132243918201439 1.5204304768689525 2 87.466528050590341 1 2 89.458917058974365 1 2 94.315490102221162 1.1 2 77.069288854402558 11.111858520130886 2 82.896180173273208 11.953396770890116 2 77.412744268901179 1.5078744657099243 2 85.815458298018399 6.0282874340256232 2 78.20012213185673 8.8869287581380032 2 78.965232982303803 4.0036676510515239 2 84.395712017235596 3.9166971509793642 2 81.383140865760183 9.3901688275997905 2 75.048339218284227 1 2 85.997910029107331 11.851450813770812 2 83.072291752452315 6.7632657246037038 2 81.904000947666148 4.0996472928057131 2 82.70856827915901 1 2 79.649707533061587 11.183764331896427 2 76.110827902530247 4.1179873804945757 2 88.30643815841816 6.3727820048597277 2 80.201741273789409 6.6194197230300968 2 84.369175378611573 9.3369284591413866 2 87.267160530659439 8.6327267532629168 2 </DataArray>
</Points>
<Cells>
<DataArray Name="connectivity" format="ascii" type="Int32">0</DataArray>
<DataArray Name="offsets" format="ascii" type="Int32">0</DataArray>
<DataArray Name="types" format="ascii" type="UInt8">1</DataArray>
</Cells>
<PointData>
<DataArray Name="Points" NumberOfComponents="3" format="ascii" type="Float32">12.511499627501708 1.1 2 20.850899702007506 5.2360431997486776 2 20.853719536115253 1 2 22.138956762471576 3.078399087813255 2 22.852357192569951 1 2 35.338704607130779 1 2 44.4882370079522 1 2 46.589321223516947 1.1 2 51.405855800087785 1 2 53.479905030159586 1.1319986352119504 2 57.863224074171455 1.1 2 65.639467191253459 1.1003036570572871 2 67.715167851150383 1 2 80.384900493002078 1.5000000000000004 2 85.132243918201439 1.5204304768689525 2 87.466528050590341 1 2 89.458917058974365 1 2 94.315490102221162 1.1 2 77.069288854402558 11.111858520130886 2 82.896180173273208 11.953396770890116 2 77.412744268901179 1.5078744657099243 2 85.815458298018399 6.0282874340256232 2 78.20012213185673 8.8869287581380032 2 78.965232982303803 4.0036676510515239 2 84.395712017235596 3.9166971509793642 2 81.383140865760183 9.3901688275997905 2 75.048339218284227 1 2 85.997910029107331 11.851450813770812 2 83.072291752452315 6.7632657246037038 2 81.904000947666148 4.0996472928057131 2 82.70856827915901 1 2 79.649707533061587 11.183764331896427 2 76.110827902530247 4.1179873804945757 2 88.30643815841816 6.3727820048597277 2 80.201741273789409 6.6194197230300968 2 84.369175378611573 9.3369284591413866 2 87.267160530659439 8.6327267532629168 2 </DataArray>
<DataArray Name="forces" NumberOfComponents="3" format="ascii" type="Float32">0.0088109455387573882 -0.0016211104522058015 0.0 0.0011299338022115991 0.0018239736363875939 0.0 -0.0013856158096885451 0.0 0.0 -0.00056569979771982533 0.00043448037379064942 0.0 -0.0013356470202110686 -0.0039769848547675235 0.0 0.00042268885249584394 -0.00128956673343723 0.0 -0.036868834319422859 -0.0017891735750669073 0.0 0.049921565004766445 -0.018406765586982447 0.0 -0.037231063950233657 -0.0055416916297586103 0.0 0.021932020087821334 0.0032704812648525418 0.0 -0.045198417228583559 -0.0058947092699574571 0.0 -0.013587547157477864 0.0006519939493960993 0.0 -0.031405162811909394 -0.080594161872747538 0.0 0.21471391286648986 -0.10889271628479552 0.0 0.18174166041931614 0.043867076302610157 0.0 -0.047334128239519921 -0.0016744109610576396 0.0 0.055508512049641467 0.0 0.0 0.049780248760590597 -0.0065046223652314647 0.0 -0.027665201102381826 0.054431657195993327 0.0 0.0 0.0 0.0 -0.062280143802106419 0.016907573443107705 0.0 0.056690945932494782 0.027940958855184328 0.0 0.027665201102381826 -0.054431657195993327 0.0 -0.035879518868057798 0.1109400372868343 0.0 0.024320259554237021 -0.0017882002890828468 0.0 0.037601474299947486 0.091644326504009471 0.0 -0.09691072112486393 -0.020634437121784303 0.0 0.0 0.0 0.0 0.014240670272923093 0.0057962468274104263 0.0 -0.02455262146857666 0.0012505381623633704 0.0 -0.18991604422943767 -0.04219266534155252 0.0 0.0 0.0 0.0 -0.0027941851563470614 -0.17044777684113493 0.0 -0.01097368583973506 -0.017957695514753083 0.0 -0.13467089462863138 -0.095002204797614426 0.0 -0.0060170854619792501 0.021995500680247825 0.0 -0.011059095837739754 0.018651937913889985 0.0 </DataArray>
<DataArray Name="radii" format="ascii" type="Float32">1.1 1.1 1 1.2000000000000002 1 1 1 1.1 1 1.1 1.1 1.1 1 1.5000000000000004 1.5000000000000004 1 1 1.1 1 1.5000000000000004 1.5000000000000004 1.5000000000000004 1.5000000000000004 1.4000000000000004 1 1.5000000000000004 1 1.5000000000000004 1.4000000000000004 1.5000000000000004 1 1 1.5000000000000004 1 1.5000000000000004 1.5000000000000004 1.5000000000000004 </DataArray>
</PointData>
<CellData/>
</Piece>
</UnstructuredGrid>
</VTKFile>
