<?xml version="1.0" ?>
<VTKFile byte_order="LittleEndian" type="UnstructuredGrid" version="0.1">
<UnstructuredGrid>
<Piece NumberOfCells="0" NumberOfPoints="62">
<Points>
<DataArray NumberOfComponents="3" format="ascii" type="Float32">2.2511630400304972 3.3973600777043944 2 6.0418512933365838 1.2805378815990482 2 5.7622177783631106 3.9153103359685879 2 7.7352653964963043 2.7922655262221094 2 11.659640523067003 3.3462279820594127 2 15.458214975970728 5.4766255528385219 2 15.851573131231868 1.06 2 24.913442379573496 2.8713400181598625 2 28.088025239271609 1.06 2 29.019111175891126 5.5205706629584643 2 30.340209381221303 1.06 2 33.846481027840021 3.1639515557601841 2 38.020227156607696 2.4399511886881231 2 42.222331781057598 1.8881896036772585 2 44.104580411331028 3.3558910576150103 2 48.232335947009204 3.1737220400740092 2 50.866564836342079 2.1709934838229059 2 53.418745313742711 3.0367514891064946 2 58.79680230345059 3.4258872367761928 2 62.884993657842649 2.0818142455710946 2 64.774885127590792 3.4145447135637834 2 69.442433060811226 2.3373809276900985 2 71.515693134606408 1.2108656263391706 2 74.299162304927847 3.9564298474848925 2 75.517930435609273 2.1566054613933052 2 77.062944009834709 4.0460334180962372 2 86.819882197888504 3.1635073847966115 2 89.274728454340249 2.9748802042399105 2 92.254046921108213 2.2094693853802654 2 94.944160100995717 3.3229774425566445 2 98.79 1.2100000000000002 2 1.2100000000000002 1.2100000000000002 2 3.6270822132399689 1.2100000000000002 2 6.9606370730811546 6.0177353523043848 2 13.420113651896111 1.2100000000000002 2 14.903322475310532 3.1247519771372883 2 26.195933437102905 5.0220326566138258 2 29.442059910807366 3.1464397003877926 2 39.87122198333595 1.2100000000000002 2 42.045747889773288 4.6338996696071169 2 46.237370547079372 4.5263722663200747 2 55.44495125898402 4.3599094114150629 2 56.778731117951125 2.0859401763429268 2 67.17026752919125 3.2377066510228487 2 69.102251107439898 4.742447444185637 2 71.886870721343342 3.6045139415370779 2 72.848275979690214 5.9347070956026737 2 75.637777527055931 5.9823422828039634 2 86.465559575163908 5.686385834913767 2 88.843550421490193 5.3701469166757851 2 96.376925803280031 1.3852968750674446 2 98.790000000000006 3.6322090347002072 2 8.9556714483486726 1.06 2 17.866951022039256 1.7177653791692489 2 27.182778913440139 2.9766982054830224 2 32.371473969823008 1.6287920141918633 2 35.163469792004527 4.831404528806484 2 35.916703161685206 2.8603867922744155 2 49.062917532707303 1.06 2 61.027218911176924 1.06 2 73.819287077995369 1.06 2 90.476183520492057 1.06 2 </DataArray>
</Points>
<Cells>
<DataArray Name="connectivity" format="ascii" type="Int32">0</DataArray>
<DataArray Name="offsets" format="ascii" type="Int32">0</DataArray>
<DataArray Name="types" format="ascii" type="UInt8">1</DataArray>
</Cells>
<PointData>
<DataArray Name="Points" NumberOfComponents="3" format="ascii" type="Float32">2.2511630400304972 3.3973600777043944 2 6.0418512933365838 1.2805378815990482 2 5.7622177783631106 3.9153103359685879 2 7.7352653964963043 2.7922655262221094 2 11.659640523067003 3.3462279820594127 2 15.458214975970728 5.4766255528385219 2 15.851573131231868 1.06 2 24.913442379573496 2.8713400181598625 2 28.088025239271609 1.06 2 29.019111175891126 5.5205706629584643 2 30.340209381221303 1.06 2 33.846481027840021 3.1639515557601841 2 38.020227156607696 2.4399511886881231 2 42.222331781057598 1.8881896036772585 2 44.104580411331028 3.3558910576150103 2 48.232335947009204 3.1737220400740092 2 50.866564836342079 2.1709934838229059 2 53.418745313742711 3.0367514891064946 2 58.79680230345059 3.4258872367761928 2 62.884993657842649 2.0818142455710946 2 64.774885127590792 3.4145447135637834 2 69.442433060811226 2.3373809276900985 2 71.515693134606408 1.2108656263391706 2 74.299162304927847 3.9564298474848925 2 75.517930435609273 2.1566054613933052 2 77.062944009834709 4.0460334180962372 2 86.819882197888504 3.1635073847966115 2 89.274728454340249 2.9748802042399105 2 92.254046921108213 2.2094693853802654 2 94.944160100995717 3.3229774425566445 2 98.79 1.2100000000000002 2 1.2100000000000002 1.2100000000000002 2 3.6270822132399689 1.2100000000000002 2 6.9606370730811546 6.0177353523043848 2 13.420113651896111 1.2100000000000002 2 14.903322475310532 3.1247519771372883 2 26.195933437102905 5.0220326566138258 2 29.442059910807366 3.1464397003877926 2 39.87122198333595 1.2100000000000002 2 42.045747889773288 4.6338996696071169 2 46.237370547079372 4.5263722663200747 2 55.44495125898402 4.3599094114150629 2 56.778731117951125 2.0859401763429268 2 67.17026752919125 3.2377066510228487 2 69.102251107439898 4.742447444185637 2 71.886870721343342 3.6045139415370779 2 72.848275979690214 5.9347070956026737 2 75.637777527055931 5.9823422828039634 2 86.465559575163908 5.686385834913767 2 88.843550421490193 5.3701469166757851 2 96.376925803280031 1.3852968750674446 2 98.790000000000006 3.6322090347002072 2 8.9556714483486726 1.06 2 17.866951022039256 1.7177653791692489 2 27.182778913440139 2.9766982054830224 2 32.371473969823008 1.6287920141918633 2 35.163469792004527 4.831404528806484 2 35.916703161685206 2.8603867922744155 2 49.062917532707303 1.06 2 61.027218911176924 1.06 2 73.819287077995369 1.06 2 90.476183520492057 1.06 2 </DataArray>
<DataArray Name="forces" NumberOfComponents="3" format="ascii" type="Float32">0.0 0.0 0.0 0.0016272365942908359 -0.0012435164535970727 0.0 -0.00038822510632618577 0.00022154108853647975 0.0 0.0013353134287187084 0.0018982715038733363 0.0 0.0 0.0 0.0 0.0 0.0 0.0 0.0 0.0 0.0 -0.0014633959529719383 0.00040521608052854967 0.0 0.0 0.0 0.0 -8.3790419020307136e-05 0.00046798176615009141 0.0 0.0031470034838257358 -0.0079556482085821525 0.0 0.0054590783923916452 0.0056809898538871919 0.0 0.021500572660709549 -0.0022539307735674058 0.0 0.02823785189089955 0.0082349677022962899 0.0 -0.0096961134674078391 -0.0053212542672844282 0.0 -0.0018582853838696066 0.0047390782511018189 0.0 -8.5786472969828824e-05 0.0003730934915719559 0.0 -3.2970648864921813e-05 0.00011917642601124299 0.0 0.0 0.0 0.0 0.00022712567998932589 0.00014530020630784435 0.0 0.0 0.0 0.0 0.020297735601933861 -0.0053558889720040984 0.0 -0.0372742774654145 0.00080041493176850192 0.0 0.019492975778570492 -0.021716960193203235 0.0 -0.081576498006104586 0.025240703742693386 0.0 -0.0064666737860670075 0.017650469308391224 0.0 0.0013340778939381749 0.0063642316640602535 0.0 0.0078589063821326594 -0.01002452960885504 0.0 -0.0074055845073946894 0.0078636864739436724 0.0 0.0 0.0 0.0 0.020681945306966047 -0.0014985936169450149 0.0 -0.0057098048715116256 0.0 0.0 0.0025816832102625118 -9.3077962520009974e-05 0.0 0.0 0.0 0.0 -0.0023600020038809263 -0.003051611494529362 0.0 0.0023600020038809263 0.003051611494529362 0.0 -7.7956571111057477e-05 0.00016189375024708896 0.0 -0.0032989394983145284 0.0074212499729299974 0.0 -0.023658021476331885 -0.011205824998491551 0.0 0.0 0.0 0.0 0.0096961134674078391 0.0053212542672844282 0.0 0.00011468717708947497 7.4901911941598022e-05 0.0 -0.00024411043277765957 0.00013090885380473525 0.0 -0.0170886320498819 0.006793288466596238 0.0 -0.00046269075687383756 0.0034884209943246065 0.0 -0.0086680695912604577 -0.0006773918644497846 0.0 -0.013694689213869449 0.018723008137504986 0.0 0.0029694727764609497 0.0043731455415023613 0.0 0.016023329342634795 0.00789554500253839 0.0 -0.0034259065860939449 0.019326301722451915 0.0 -0.018571087074785615 0.0017597716042575108 0.0 0.0 0.0 0.0 -0.0014295312455290055 -0.00081998655012789927 0.0 0.0 0.0 0.0 0.0018478621619712663 -7.9183486257702158e-05 0.0 -0.0052233519588825456 -0.0056145733843851282 0.0 0.0 0.0 0.0 -0.025571322628948148 0.0062778531658962099 0.0 0.0016179636992662914 -0.0048869045357209468 0.0 -0.0002463289423108618 -0.00013550248553755007 0.0 0.034917177769485566 -0.0052438452936701928 0.0 -0.0027840929085200328 -0.0017817159648049329 0.0 </DataArray>
<DataArray Name="radii" format="ascii" type="Float32">1.2100000000000002 1.2100000000000002 1.2100000000000002 1.06 1.2100000000000002 1.2100000000000002 1.06 1.2100000000000002 1.06 1.2100000000000002 1.06 1.06 1.06 1.2100000000000002 1.2100000000000002 1.2100000000000002 1.06 1.2100000000000002 1.2100000000000002 1.06 1.2100000000000002 1.2100000000000002 1.2100000000000002 1.2100000000000002 1.06 1.2100000000000002 1.2100000000000002 1.2100000000000002 1.06 1.2100000000000002 1.2100000000000002 1.2100000000000002 1.2100000000000002 1.2100000000000002 1.2100000000000002 1.2100000000000002 1.2100000000000002 1.2100000000000002 1.2100000000000002 1.2100000000000002 1.2100000000000002 1.2100000000000002 1.2100000000000002 1.2100000000000002 1.2100000000000002 1.2100000000000002 1.2100000000000002 1.2100000000000002 1.2100000000000002 1.2100000000000002 1.2100000000000002 1.2100000000000002 1.06 1.06 1.06 1.06 1.06 1.06 1.06 1.06 1.06 1.06 </DataArray>
</PointData>
<CellData/>
</Piece>
</UnstructuredGrid>
</VTKFile>
