<?xml version="1.0" ?>
<VTKFile byte_order="LittleEndian" type="UnstructuredGrid" version="0.1">
<UnstructuredGrid>
<Piece NumberOfCells="0" NumberOfPoints="208">
<Points>
<DataArray NumberOfComponents="3" format="ascii" type="Float32">1 8.6918939118028717 2 8.0512965513508359 1 2 4.5468015982656746 10.404758130282568 2 9.2475403743204421 8.6715889302054947 2 11.510524839396624 8.9373287902266263 2 15.223765836147065 9.8092098215649841 2 16.943620315271303 3.0932821259066308 2 21.985917268126851 5.2822298101304002 2 25.610768105037206 1.3000000000000003 2 27.535879686842243 8.5690593063628384 2 29.464468738971316 3.6452207150572784 2 33.429565031646973 5.7346549712651296 2 39.785561991373079 7.5080024110851724 2 41.700455730105013 4.1641333800313527 2 46.232528178563548 3.0673135919700636 2 48.648605385940868 6.4367453864965709 2 51.172613245974567 5.8940822171203866 2 52.079747992385428 8.0589867822454799 2 57.055320934775679 8.0923200610531048 2 62.657726333524913 1.3000000000000003 2 59.747241243001262 8.3829785150523897 2 63.5009022016432 6.7375534325275304 2 68.650548869797831 1 2 70.56500536794961 10.149937082321747 2 71.933778703814838 7.6562581108645507 2 76.641765455139137 11.932057658685059 2 90.41702683225823 6.890393327370945 2 91.925557051561412 4.0557907130353543 2 94.935887901450556 6.7479374620577364 2 97.097950009935033 9.1469803841556185 2 96.294430386934394 1 2 1.6701170701889734 4.8294499280733909 2 3.4655835337030583 3.9568423662281424 2 5.8788139111696278 8.9362692533060724 2 16.155092465287971 1 2 14.859440691906626 7.5376590615407562 2 25.563382957393458 8.267695299908226 2 27.973995955421842 5.8330335139698315 2 40.599264973700336 1 2 40.513105356052371 9.675578856794905 2 46.262291838758316 8.7663572963115968 2 53.829641408231609 7.1443273479895026 2 56.415038426789856 4.87758488502259 2 64.378657252438387 3.8634199431153555 2 65.467938592496267 11.375349544072286 2 66.801950663892029 6.3322441341175368 2 68.703471434688154 12.976293684619273 2 71.878201412763104 13.543283956548956 2 92.233765558440808 12.13892296379411 2 95.632773359787024 12.629263066511777 2 97.332841920979206 4.1460365999993778 2 99.0 8.9161183185899056 2 10.361522896309067 1.3000000000000003 2 19.976793833430907 6.3212191697257332 2 26.871678514506588 3.5805623896725463 2 32.050469379802202 3.5496626889320075 2 37.25500098648191 7.8746851990364535 2 36.01612416733068 5.6109122175311512 2 48.42888053411108 3.7179453398341171 2 58.034416630336743 3.3967697988674952 2 70.812131817204374 1.3000000000000003 2 92.154383214270155 1.342084042763358 2 3.2885390628349178 5.9419130368029345 2 8.7640678154577802 6.217266486293525 2 6.1316765118341507 3.5091410406849715 2 11.999763550467582 2.8865971187670669 2 18.738404850143869 9.7901713152570462 2 23.954549979547377 2.7751226249790752 2 31.429867408826652 9.4416113798103574 2 42.576667030390361 1.1402498694794241 2 45.368608457840431 6.2210625374811332 2 50.220157021015353 9.8345468131024951 2 53.277969563616416 5.0052835457389753 2 59.773143986595869 5.9841591241978875 2 62.13810191473879 5.3762336308892555 2 67.11796583317431 8.270563042732439 2 66.569239218819249 4.3792471642603665 2 69.95341824060587 8.293539661365303 2 74.405612281428859 9.5141211760924378 2 89.056134151371978 4.1269581878641652 2 91.750587921295079 8.1946565775443325 2 97.734615725462788 12.368036581780524 2 97.58128974117156 2.1967581190825332 2 1 2.9892815032459468 2 6.1541458610382849 1.5398989648539148 2 6.8633984723386678 10.665273673279613 2 15.300830313255087 5.3734301579283068 2 16.65560161846647 6.8268372553182575 2 25.341143207645253 11.692000288446485 2 31.010423598299045 5.5427379633941936 2 38.683488323307024 1.509532166486437 2 41.663527624636551 6.2805500574617543 2 44.182126283501646 9.5675183234293417 2 54.766094588587265 9.1248802438775236 2 54.666634436463418 1.4187725229413986 2 62.737597014842486 8.5261777839546049 2 64.782492085195742 13.355630841764581 2 67.77107056603387 11.262109219851151 2 66.714679578872847 12.906608219810623 2 71.56087215374977 15.513793293513332 2 93.142050184147536 16.586900644118575 2 93.462780914745565 8.8844410536360972 2 99.0 7.0000235720217345 2 99.0 5.1104464786419586 2 10.944833067499987 6.7439504274342106 2 18.82271209338013 1.3000000000000003 2 28.144080847160048 1.3000000000000003 2 30.674743821818684 1.3000000000000003 2 34.674589157366974 8.0060245138999058 2 38.097140435792419 4.0830736266360939 2 50.960371979283629 3.3050721762521555 2 60.473954655701554 3.8512651251522216 2 70.376760668384875 5.7980154731309161 2 92.552235464171616 6.1349550529430603 2 9.8830858215706261 4.2178755511980714 2 19.465705468105782 3.7866078458229628 2 25.709346424768423 5.9879982110240642 2 33.206589395876478 1.3000000000000003 2 36.118092689520026 10.197423637511598 2 34.80066683735437 3.3300713313648473 2 48.867985539294416 1.3000000000000003 2 60.31642980498944 1.3000000000000003 2 69.326315869272747 3.2910215805896845 2 93.805140883290321 3.3369797056121535 2 2.7771808416875534 7.8254398650105204 2 8.0103898054192175 2.9556842597912771 2 2.6512945507665182 9.8035526034628528 2 13.464646278516835 8.9080251305599276 2 16.982142603393712 10.728602207418902 2 23.490362642148778 6.6505232875689098 2 26.927228427912649 10.474257050596792 2 40.020493260101745 5.2232728445111878 2 44.785900195797893 4.310795118561499 2 47.018013204151671 5.3496615541515515 2 52.721784441402761 9.9509381801133916 2 57.573328184678267 9.9987522746082913 2 61.082238234054728 9.876338253751177 2 65.048673982451191 5.5951623477178645 2 67.51113982937396 2.6474236227652694 2 72.375169451190672 11.628019582374529 2 74.757820584161863 11.369342448008863 2 90.491082272211727 5.1273427471092949 2 90.548522700910453 2.8741796417353518 2 95.828969043525291 10.68350319289925 2 95.855189458392644 2.8351972727716994 2 1 6.696836470790327 2 2.7315248753988537 2.1372422280902676 2 7.2752164005534796 7.5343227453490282 2 14.694265557965156 2.2921627067267201 2 13.205275768881977 6.4604099677402704 2 23.603605039915841 8.6354244007307894 2 29.61817084201374 6.9325564683284266 2 40.106020563344494 2.9422048622740591 2 41.964117196743857 8.2559786145029985 2 48.173740909471377 9.3549507428621332 2 55.718461995017883 6.6582453466247564 2 55.736505171956402 3.0462521899170785 2 62.600092191701911 3.4849525923965086 2 65.603680503864226 9.4399111878603676 2 68.290035546743965 5.1505006552605401 2 70.478049619783647 12.120893139376861 2 73.76867968402982 12.967223398441162 2 92.289021616093606 10.310700181554877 2 94.028599195835994 11.457715074960086 2 95.542211030535327 4.7119573959703898 2 99.0 10.863759164972496 2 5.1595670059563163 7.0893328396679989 2 6.9295216283556629 5.5750928356053748 2 5.0449817192979562 5.1187778143879701 2 12.071413645921103 4.8299049762332338 2 18.318129350530395 7.8616888475473869 2 23.856138028777607 4.7044605045166747 2 29.5043692675439 8.9098949938012915 2 43.305223892734311 2.9909894320883228 2 44.040766921164824 7.6181186360621975 2 50.00972988583883 7.8639508250517034 2 53.628459573632654 3.0668042645391136 2 57.831614188116937 6.2659867590639395 2 61.327284180391956 7.1741187883217066 2 65.281331152398735 7.5323122548067198 2 65.744972497236816 2.687927770981775 2 68.572698763417421 7.0465331089195766 2 72.496600562665066 9.7425211155842817 2 88.750149266343271 2.4671283817612926 2 90.617004754387779 9.6796604268165716 2 96.881140116296521 14.163468127042821 2 99.0 1 2 1.1064872751380874 1 2 4.2806082217925523 1 2 8.8440196553236916 10.915603894990237 2 13.843973162271787 4.0425708798401976 2 17.715718404433229 5.2081801280335025 2 23.65040140753274 10.627504565772956 2 31.553955054278738 7.4522978289457411 2 36.846942673544298 2.2410149988881871 2 43.481067138857583 5.7145431735729195 2 42.925592939937665 11.098419105904991 2 55.666135129822521 10.910917051386512 2 56.355017785264472 1 2 63.793473373157084 10.157059650714535 2 63.281209491930461 12.051278166503536 2 68.586799399906354 9.5561964755878126 2 67.637468837278959 14.657230853377559 2 69.859920078471049 14.551535252790638 2 94.547272294402347 14.995032092324555 2 95.260113617167448 8.8682598746219163 2 97.108332073665949 7.1497510988934136 2 99.0 3.2004785931785977 2 </DataArray>
</Points>
<Cells>
<DataArray Name="connectivity" format="ascii" type="Int32">0</DataArray>
<DataArray Name="offsets" format="ascii" type="Int32">0</DataArray>
<DataArray Name="types" format="ascii" type="UInt8">1</DataArray>
</Cells>
<PointData>
<DataArray Name="Points" NumberOfComponents="3" format="ascii" type="Float32">1 8.6918939118028717 2 8.0512965513508359 1 2 4.5468015982656746 10.404758130282568 2 9.2475403743204421 8.6715889302054947 2 11.510524839396624 8.9373287902266263 2 15.223765836147065 9.8092098215649841 2 16.943620315271303 3.0932821259066308 2 21.985917268126851 5.2822298101304002 2 25.610768105037206 1.3000000000000003 2 27.535879686842243 8.5690593063628384 2 29.464468738971316 3.6452207150572784 2 33.429565031646973 5.7346549712651296 2 39.785561991373079 7.5080024110851724 2 41.700455730105013 4.1641333800313527 2 46.232528178563548 3.0673135919700636 2 48.648605385940868 6.4367453864965709 2 51.172613245974567 5.8940822171203866 2 52.079747992385428 8.0589867822454799 2 57.055320934775679 8.0923200610531048 2 62.657726333524913 1.3000000000000003 2 59.747241243001262 8.3829785150523897 2 63.5009022016432 6.7375534325275304 2 68.650548869797831 1 2 70.56500536794961 10.149937082321747 2 71.933778703814838 7.6562581108645507 2 76.641765455139137 11.932057658685059 2 90.41702683225823 6.890393327370945 2 91.925557051561412 4.0557907130353543 2 94.935887901450556 6.7479374620577364 2 97.097950009935033 9.1469803841556185 2 96.294430386934394 1 2 1.6701170701889734 4.8294499280733909 2 3.4655835337030583 3.9568423662281424 2 5.8788139111696278 8.9362692533060724 2 16.155092465287971 1 2 14.859440691906626 7.5376590615407562 2 25.563382957393458 8.267695299908226 2 27.973995955421842 5.8330335139698315 2 40.599264973700336 1 2 40.513105356052371 9.675578856794905 2 46.262291838758316 8.7663572963115968 2 53.829641408231609 7.1443273479895026 2 56.415038426789856 4.87758488502259 2 64.378657252438387 3.8634199431153555 2 65.467938592496267 11.375349544072286 2 66.801950663892029 6.3322441341175368 2 68.703471434688154 12.976293684619273 2 71.878201412763104 13.543283956548956 2 92.233765558440808 12.13892296379411 2 95.632773359787024 12.629263066511777 2 97.332841920979206 4.1460365999993778 2 99.0 8.9161183185899056 2 10.361522896309067 1.3000000000000003 2 19.976793833430907 6.3212191697257332 2 26.871678514506588 3.5805623896725463 2 32.050469379802202 3.5496626889320075 2 37.25500098648191 7.8746851990364535 2 36.01612416733068 5.6109122175311512 2 48.42888053411108 3.7179453398341171 2 58.034416630336743 3.3967697988674952 2 70.812131817204374 1.3000000000000003 2 92.154383214270155 1.342084042763358 2 3.2885390628349178 5.9419130368029345 2 8.7640678154577802 6.217266486293525 2 6.1316765118341507 3.5091410406849715 2 11.999763550467582 2.8865971187670669 2 18.738404850143869 9.7901713152570462 2 23.954549979547377 2.7751226249790752 2 31.429867408826652 9.4416113798103574 2 42.576667030390361 1.1402498694794241 2 45.368608457840431 6.2210625374811332 2 50.220157021015353 9.8345468131024951 2 53.277969563616416 5.0052835457389753 2 59.773143986595869 5.9841591241978875 2 62.13810191473879 5.3762336308892555 2 67.11796583317431 8.270563042732439 2 66.569239218819249 4.3792471642603665 2 69.95341824060587 8.293539661365303 2 74.405612281428859 9.5141211760924378 2 89.056134151371978 4.1269581878641652 2 91.750587921295079 8.1946565775443325 2 97.734615725462788 12.368036581780524 2 97.58128974117156 2.1967581190825332 2 1 2.9892815032459468 2 6.1541458610382849 1.5398989648539148 2 6.8633984723386678 10.665273673279613 2 15.300830313255087 5.3734301579283068 2 16.65560161846647 6.8268372553182575 2 25.341143207645253 11.692000288446485 2 31.010423598299045 5.5427379633941936 2 38.683488323307024 1.509532166486437 2 41.663527624636551 6.2805500574617543 2 44.182126283501646 9.5675183234293417 2 54.766094588587265 9.1248802438775236 2 54.666634436463418 1.4187725229413986 2 62.737597014842486 8.5261777839546049 2 64.782492085195742 13.355630841764581 2 67.77107056603387 11.262109219851151 2 66.714679578872847 12.906608219810623 2 71.56087215374977 15.513793293513332 2 93.142050184147536 16.586900644118575 2 93.462780914745565 8.8844410536360972 2 99.0 7.0000235720217345 2 99.0 5.1104464786419586 2 10.944833067499987 6.7439504274342106 2 18.82271209338013 1.3000000000000003 2 28.144080847160048 1.3000000000000003 2 30.674743821818684 1.3000000000000003 2 34.674589157366974 8.0060245138999058 2 38.097140435792419 4.0830736266360939 2 50.960371979283629 3.3050721762521555 2 60.473954655701554 3.8512651251522216 2 70.376760668384875 5.7980154731309161 2 92.552235464171616 6.1349550529430603 2 9.8830858215706261 4.2178755511980714 2 19.465705468105782 3.7866078458229628 2 25.709346424768423 5.9879982110240642 2 33.206589395876478 1.3000000000000003 2 36.118092689520026 10.197423637511598 2 34.80066683735437 3.3300713313648473 2 48.867985539294416 1.3000000000000003 2 60.31642980498944 1.3000000000000003 2 69.326315869272747 3.2910215805896845 2 93.805140883290321 3.3369797056121535 2 2.7771808416875534 7.8254398650105204 2 8.0103898054192175 2.9556842597912771 2 2.6512945507665182 9.8035526034628528 2 13.464646278516835 8.9080251305599276 2 16.982142603393712 10.728602207418902 2 23.490362642148778 6.6505232875689098 2 26.927228427912649 10.474257050596792 2 40.020493260101745 5.2232728445111878 2 44.785900195797893 4.310795118561499 2 47.018013204151671 5.3496615541515515 2 52.721784441402761 9.9509381801133916 2 57.573328184678267 9.9987522746082913 2 61.082238234054728 9.876338253751177 2 65.048673982451191 5.5951623477178645 2 67.51113982937396 2.6474236227652694 2 72.375169451190672 11.628019582374529 2 74.757820584161863 11.369342448008863 2 90.491082272211727 5.1273427471092949 2 90.548522700910453 2.8741796417353518 2 95.828969043525291 10.68350319289925 2 95.855189458392644 2.8351972727716994 2 1 6.696836470790327 2 2.7315248753988537 2.1372422280902676 2 7.2752164005534796 7.5343227453490282 2 14.694265557965156 2.2921627067267201 2 13.205275768881977 6.4604099677402704 2 23.603605039915841 8.6354244007307894 2 29.61817084201374 6.9325564683284266 2 40.106020563344494 2.9422048622740591 2 41.964117196743857 8.2559786145029985 2 48.173740909471377 9.3549507428621332 2 55.718461995017883 6.6582453466247564 2 55.736505171956402 3.0462521899170785 2 62.600092191701911 3.4849525923965086 2 65.603680503864226 9.4399111878603676 2 68.290035546743965 5.1505006552605401 2 70.478049619783647 12.120893139376861 2 73.76867968402982 12.967223398441162 2 92.289021616093606 10.310700181554877 2 94.028599195835994 11.457715074960086 2 95.542211030535327 4.7119573959703898 2 99.0 10.863759164972496 2 5.1595670059563163 7.0893328396679989 2 6.9295216283556629 5.5750928356053748 2 5.0449817192979562 5.1187778143879701 2 12.071413645921103 4.8299049762332338 2 18.318129350530395 7.8616888475473869 2 23.856138028777607 4.7044605045166747 2 29.5043692675439 8.9098949938012915 2 43.305223892734311 2.9909894320883228 2 44.040766921164824 7.6181186360621975 2 50.00972988583883 7.8639508250517034 2 53.628459573632654 3.0668042645391136 2 57.831614188116937 6.2659867590639395 2 61.327284180391956 7.1741187883217066 2 65.281331152398735 7.5323122548067198 2 65.744972497236816 2.687927770981775 2 68.572698763417421 7.0465331089195766 2 72.496600562665066 9.7425211155842817 2 88.750149266343271 2.4671283817612926 2 90.617004754387779 9.6796604268165716 2 96.881140116296521 14.163468127042821 2 99.0 1 2 1.1064872751380874 1 2 4.2806082217925523 1 2 8.8440196553236916 10.915603894990237 2 13.843973162271787 4.0425708798401976 2 17.715718404433229 5.2081801280335025 2 23.65040140753274 10.627504565772956 2 31.553955054278738 7.4522978289457411 2 36.846942673544298 2.2410149988881871 2 43.481067138857583 5.7145431735729195 2 42.925592939937665 11.098419105904991 2 55.666135129822521 10.910917051386512 2 56.355017785264472 1 2 63.793473373157084 10.157059650714535 2 63.281209491930461 12.051278166503536 2 68.586799399906354 9.5561964755878126 2 67.637468837278959 14.657230853377559 2 69.859920078471049 14.551535252790638 2 94.547272294402347 14.995032092324555 2 95.260113617167448 8.8682598746219163 2 97.108332073665949 7.1497510988934136 2 99.0 3.2004785931785977 2 </DataArray>
<DataArray Name="forces" NumberOfComponents="3" format="ascii" type="Float32">-0.030300204173045527 0.0098707342392845808 0.0 0.028128623899082092 -0.055367245751162988 0.0 -0.00095101591243693627 0.017681531664190755 0.0 -0.019598519881072689 0.014091114581814477 0.0 -0.016233140562406642 0.038529119334407211 0.0 0.0074893746832365524 0.0038125977328287621 0.0 0.0036950099858750508 0.016029921613438643 0.0 -0.0072312001295995812 -0.0048896325553798945 0.0 -0.0059894095936308886 -0.054867777910124246 0.0 0.0024730456893139372 0.00035588367846342886 0.0 -0.0060100012246697525 0.00063491281437574854 0.0 -0.0064865095116068069 0.0057949590894163083 0.0 -0.0089356898890252303 0.015565682935827239 0.0 0.0023793056582236405 -0.00038204754031019757 0.0 0.043656483913400754 0.037620306914974561 0.0 0.014974402148530404 0.002493675775570553 0.0 -0.0074379295536948506 -0.0027941864207641602 0.0 -0.024016852453965815 0.010070938958630229 0.0 0.014042149558018396 0.020285344401770974 0.0 0.0029246229360390839 -0.0906046450893781 0.0 -0.0086001450211985395 0.006600666820448616 0.0 -0.034279613316063877 0.026238228677734947 0.0 -0.022479914822713495 -0.016414856603050886 0.0 -0.010159220670142263 0.021765961159559085 0.0 -0.011008462926783064 0.02169623428969597 0.0 0.0036403975811929584 0.036814298920235723 0.0 -0.021621867618381835 0.032559981766901225 0.0 0.0030957712520120473 -0.026119356850600906 0.0 -0.028508274138659126 0.032638065548427957 0.0 0.069407558906541184 0.028099513577702392 0.0 0.022588553327189585 -0.28733237174475501 0.0 -0.013869498776441377 0.005189707647414105 0.0 -0.013715275574980583 0.0032384988861524459 0.0 -0.0022339875236132081 0.010869880075280315 0.0 0.01463053513761085 -0.09664891747229741 0.0 -0.01085395810192967 0.0075599152183252524 0.0 0.00059726942384569996 0.014414089723980884 0.0 0.012116715689319373 -0.015116500705615668 0.0 0.0051241572737688 -0.0052987446428641753 0.0 0.0045757871006002881 0.013725608712733881 0.0 0.0 0.0 0.0 -0.02611897332461784 0.00098319666666014244 0.0 -0.042170646324599541 0.022010698904461876 0.0 -0.023384743725488016 0.034576261730219188 0.0 -0.021043115524560722 0.039193027396932777 0.0 -0.024639578269164748 0.025184557310365903 0.0 -0.019586748556100837 0.010899367660234895 0.0 -0.025969435752614053 0.031069514299781956 0.0 0.031350106142321144 0.039119786939227352 0.0 -0.0062738893638325521 0.036043517800234973 0.0 -0.0062462975617690181 0.018075185861402197 0.0 0.078238159013051312 0.021950407819237711 0.0 -0.014922298396375842 -0.014432040835892305 0.0 -0.0070590376875839661 0.0045581848166962868 0.0 -0.0066218884152872848 -0.00016443654356041807 0.0 -0.0047654022633614006 0.0027618928713548929 0.0 -0.010910555484693482 0.0098848539502198653 0.0 -0.0061759580753374434 0.0069137731870862716 0.0 0.042616158162797291 0.042293258010069654 0.0 -0.045723532417372884 0.0049100494281432948 0.0 -0.023384063304757757 -0.29023396662272061 0.0 0.0092767012603360774 -0.02717096375245024 0.0 -0.01355871068271719 0.0065611804377274201 0.0 0.0028342166448131548 0.0048080041702508458 0.0 -0.0083871683413075382 -0.0058750630659185135 0.0 -0.015249995499029194 0.0059324094772648175 0.0 0.013907277938658757 0.022172953784452346 0.0 -0.0033920429153972338 0.0049304220727443976 0.0 0.0018889804940016765 0.007559653930790753 0.0 -0.011397796219186865 -0.010616325182661078 0.0 -0.025850243667336473 0.026020378128637472 0.0 0.0021428089771658712 0.019750592202054593 0.0 0.0091474606173619424 0.024767806533035976 0.0 -0.013521147547023344 0.02107984743389494 0.0 -0.022344535282048217 0.0031036823702062614 0.0 -0.018729398772744828 0.022532955433040992 0.0 -0.029013096807114246 0.019455964231910108 0.0 -0.017458350241965168 0.02327534369573396 0.0 -0.0046820076240983444 0.036486707560587792 0.0 0.033860252025983369 0.025371424189112757 0.0 0.0027669972891539857 0.015235285231048376 0.0 -0.017285484995470446 0.016044215010550516 0.0 0.0078023703869978256 0.016640801863831989 0.0 -0.078992992779998217 -0.00021948005250194656 0.0 0.022615239049262815 -0.009811742543792884 0.0 0.0015570341928942983 0.0084639109326242936 0.0 0.011110985724502245 0.0087717347753401044 0.0 0.0016567550143830947 0.016719517768988452 0.0 0.0014330129233495479 0.0013161014358475573 0.0 -0.004609620224648071 0.0091068319757592556 0.0 0.0049917071304866022 -0.0041200170133387113 0.0 -0.0068152524941643006 0.021465588160217375 0.0 0.016719740184639578 0.033272090040661069 0.0 0.0 0.0 0.0 -0.013517718603799744 0.015421725097383397 0.0 -0.019296252631520579 0.035415480780566208 0.0 -0.0055564831927197439 0.0089843017681258547 0.0 -0.047674010702109956 0.019418694804353084 0.0 -0.0096484613662342275 0.035925026269308602 0.0 0.0026019350714827569 0.0024673761337160281 0.0 0.021914661981940191 0.045668219077916267 0.0 0.038366134250756162 -0.054829222986682517 0.0 0.10757787504651903 0.017039772211930055 0.0 0.06526771760338522 0.015586877919337952 0.0 0.0043311018965593098 0.028378464044409614 0.0 -0.0087108353362364936 -0.033165178766819639 0.0 -0.0030888946251650395 0.0 0.0 0.0010708783576198755 0.0 0.0 -0.011578333658291463 0.0097188727555851048 0.0 0.0015695230328928653 0.017945900438349156 0.0 0.034299925098432313 -0.0084012652721485916 0.0 -0.036056687863343123 0.0086469562563201117 0.0 -0.01720735368009306 0.018157481137670635 0.0 -0.031860611259171071 -0.0083592230680654411 0.0 0.014853215823074736 0.0091593389267206407 0.0 0.0011095711226545013 -0.0003420245509345686 0.0 0.0084190340110653107 0.01303107627530499 0.0 0.0055510269159505729 -0.068240374837730711 0.0 -0.0062038275123971068 0.012651081613620845 0.0 0.0043573705606922974 0.0011727185717780066 0.0 -0.045351732302821038 -0.11100018260816565 0.0 0.0052052654497504432 -0.020777824814830495 0.0 -0.023129796317113233 0.010901737032910475 0.0 0.0019084788229241506 -0.013126926394372219 0.0 0.009546165804806309 0.019510828462377172 0.0 0.0049328312417118853 0.010034620193156277 0.0 -0.0044361463918704443 0.020372481119434675 0.0 -0.0071040776087471155 0.020592088405139947 0.0 0.0068360623838635871 0.01220871193534301 0.0 -0.0042271906257799344 0.007673028132530603 0.0 0.00029457550860909857 -0.00022600878750469227 0.0 0.0046151429798976309 0.012085733954660453 0.0 -0.0035035509309833471 0.0079076871623203066 0.0 -0.0091053910590045972 0.024747191543332631 0.0 0.00069300515629279751 0.0020729778242578193 0.0 0.0066108089696918244 0.024191482453357477 0.0 0.0 0.0 0.0 -0.024825091147430277 0.035787506750749147 0.0 -0.0267126037720882 0.0089372012039367066 0.0 -0.012524293094508443 0.03377653689788733 0.0 -0.0032037721158078292 0.044735396221805127 0.0 0.047294419526497877 0.033779218277682571 0.0 0.0050074129328418204 -0.016638667216644198 0.0 0.067496483397811335 0.039209938155008325 0.0 0.0055519684031630524 0.0073240355940188268 0.0 -0.0054627203233416702 0.010309719314347382 0.0 -0.0011591091240381185 -0.010929705220953878 0.0 -0.013272896204243479 -0.0087107969278574782 0.0 0.0094997728624634722 0.0011409668110731602 0.0 0.0034459587297510767 -0.013850163623725448 0.0 -0.0013823123279474215 0.0064951370669784105 0.0 -0.003370015927489348 0.016878946535522799 0.0 0.0 0.0 0.0 0.0 0.0 0.0 0.0 0.0 0.0 -0.011110766796142715 0.041164633686114262 0.0 0.011464958179170964 -0.00074493612418444211 0.0 -0.027454183482058414 0.00069117994293075788 0.0 -0.0038888049899212934 0.038949910969934498 0.0 -0.023582600735548957 0.018662889991029774 0.0 -0.016509820875398297 0.021581570834971524 0.0 -0.018750026751666989 0.04583652266216192 0.0 0.10493488125472793 0.025116961799404772 0.0 0.027575700893526039 -0.020684379714374462 0.0 -0.016108915658395246 0.016453664676435095 0.0 0.023149058352900261 0.026942413339414311 0.0 -0.0051047223310093769 0.010373965724656094 0.0 0.0044438119402697776 -0.01537843749541605 0.0 -0.0074523668903629103 0.0061177806557003132 0.0 0.012295018961527272 0.016489860061486235 0.0 0.0030244775886275124 0.021833502880451869 0.0 0.00302875050973432 0.010075653051219959 0.0 -0.0015138177625574985 0.020146980291087378 0.0 0.0019440899946356737 -0.0075720505293446795 0.0 -0.051496101654058601 0.024109970237405038 0.0 0.01117865806486629 0.013973752167175349 0.0 -0.022652919785872909 0.014184487363501728 0.0 -0.020421783416670298 0.0029201587636543515 0.0 -0.0026528645703339446 0.013028975209454147 0.0 -0.028393155336319316 0.037272865540095207 0.0 -0.027718887946007714 0.012607643033006197 0.0 -0.019113862422945598 0.019612539629036974 0.0 -0.0080078827322532919 0.02850787538953585 0.0 0.00096199553652603909 0.012679623179475005 0.0 0.061140141176717427 0.075235683643683798 0.0 0.0096672752663809827 0.029513438679423503 0.0 0.11159585152806348 -0.093501299749202793 0.0 -0.014415276980063448 -0.017954330321166681 0.0 0.01503558972001743 -0.062348161256957711 0.0 -0.00033296392984987194 0.021381618264622426 0.0 0.012650160878594968 0.0063454599126869515 0.0 0.019323046440628933 0.020709882584990128 0.0 -0.0015570670869988427 0.0061598357508715011 0.0 0.0044810171235152348 0.0074125686531545778 0.0 0.010046122657183652 0.010139808947402261 0.0 -0.014358292896179674 0.0062270581911544713 0.0 -0.013689800219347197 0.016883757175403483 0.0 0.0 0.0 0.0 -0.0057321598652198547 -0.077281279123676105 0.0 -0.0080987953699136542 0.031580313157000758 0.0 -0.016835755283960828 0.030979048420037462 0.0 -0.01942585751065723 0.027718288421532469 0.0 0.0042532086721412746 0.025892827664759779 0.0 -0.013719578202528837 0.014758372555653401 0.0 0.033739032952092969 0.0088098281817312867 0.0 0.059423183844731532 0.037330477391292805 0.0 -0.01287910152880728 0.021106169907823501 0.0 0.286763863929548 0.019472108677068681 0.0 </DataArray>
<DataArray Name="radii" format="ascii" type="Float32">1 1 1 1.3000000000000003 1 1 1.3000000000000003 1 1.3000000000000003 1 1.3000000000000003 1.3000000000000003 1.3000000000000003 1 1 1 1.3000000000000003 1 1 1.3000000000000003 1 1 1 1 1.3000000000000003 1 1 1 1.3000000000000003 1 1 1 1 1 1 1 1 1 1 1 1 1 1 1 1 1 1 1 1 1 1 1 1.3000000000000003 1.3000000000000003 1.3000000000000003 1.3000000000000003 1.3000000000000003 1.3000000000000003 1.3000000000000003 1.3000000000000003 1.3000000000000003 1.3000000000000003 1 1 1 1 1 1 1 1 1 1 1 1 1 1 1 1 1 1 1 1 1 1 1 1 1 1 1 1 1 1 1 1 1 1 1 1 1 1 1 1 1 1 1.3000000000000003 1.3000000000000003 1.3000000000000003 1.3000000000000003 1.3000000000000003 1.3000000000000003 1.3000000000000003 1.3000000000000003 1.3000000000000003 1.3000000000000003 1.3000000000000003 1.3000000000000003 1.3000000000000003 1.3000000000000003 1.3000000000000003 1.3000000000000003 1.3000000000000003 1.3000000000000003 1.3000000000000003 1.3000000000000003 1 1 1 1 1 1 1 1 1 1 1 1 1 1 1 1 1 1 1 1 1 1 1 1 1 1 1 1 1 1 1 1 1 1 1 1 1 1 1 1 1 1 1 1 1 1 1 1 1 1 1 1 1 1 1 1 1 1 1 1 1 1 1 1 1 1 1 1 1 1 1 1 1 1 1 1 1 1 1 1 1 1 1 1 </DataArray>
</PointData>
<CellData/>
</Piece>
</UnstructuredGrid>
</VTKFile>
