<?xml version="1.0" ?>
<VTKFile byte_order="LittleEndian" type="UnstructuredGrid" version="0.1">
<UnstructuredGrid>
<Piece NumberOfCells="0" NumberOfPoints="104">
<Points>
<DataArray NumberOfComponents="3" format="ascii" type="Float32">1.5645081577957831 5.410859048131452 2 7.5245799170977588 1.09 2 5.2398723754190604 5.4457640448401392 2 9.5127987944599024 4.5861039822643548 2 11.86091830766105 5.3810107611918152 2 15.305243406911181 7.4202057760473821 2 17.262951554245024 1.3900000000000003 2 24.305240628807123 3.866731409018358 2 27.399397920301698 1.3900000000000003 2 28.192423899870146 6.6777839791540918 2 30.176656977547953 1.3900000000000003 2 33.562444099338364 4.1955667619148187 2 38.845905301373996 4.0274110197551565 2 41.011987488396322 2.7127418870240079 2 45.416603717335725 2.9047161236791972 2 48.494715830262379 3.7887450679699346 2 51.007694867098323 3.4364226914163751 2 53.206146510302041 4.584599178112458 2 58.686798421139478 4.1991200391813681 2 63.156723858093976 1.45180572156744 2 62.947235102606761 6.3617458052989813 2 67.018873857689087 3.1905808921851047 2 70.54303472784062 1.09 2 73.47557369504014 6.5912623770777419 2 73.529245919253924 4.1062607190048963 2 77.761215838341371 5.8668841292920382 2 88.539438512105832 3.9020619260797016 2 90.683953410418226 3.716362316411117 2 93.19049888041198 3.6187491247452059 2 95.025312920043561 5.2189290699490494 2 96.75692052698254 1.09 2 1.09 3.2688273808415009 2 3.2378671085354576 1.6468923460167952 2 7.3753565631569131 5.8839166030452938 2 14.64800970932796 1.09 2 14.752939526022187 5.3113713843409212 2 25.132086950038538 5.8831910928667774 2 29.265128895561954 4.7811171739995544 2 39.562649507733617 1.09 2 41.005963742905685 6.0155546830802873 2 46.344776149225829 6.1187294447348393 2 55.803286897781106 4.9085261988841484 2 56.873951566438805 3.005174521892469 2 64.926893640857529 3.2144260527338169 2 67.762162701613505 6.4285216000279899 2 71.23148558384149 3.2354984443696444 2 72.701000837312279 8.6176945212172651 2 74.855562358573195 8.3118274559356244 2 89.342969755574941 8.6478175718177894 2 91.374623595093041 7.8777932204700898 2 95.445574606454358 2.8148630028138415 2 98.831202326776392 5.5139324903471607 2 9.9856220779222458 1.3900066866977441 2 19.587392242762245 2.913874188829324 2 26.875678219897662 4.1196263670750906 2 32.951902995221737 1.4245255949642577 2 35.512890791963741 6.1755414359976761 2 36.176395001918209 3.2537154592016861 2 49.122091364944481 1.3912431733844537 2 60.408904522521375 1.3900000000000003 2 73.020678883177595 1.4080692711199574 2 91.591288984717465 1.3900000000000003 2 3.16457208138337 3.9313320064392641 2 7.4155024693074063 3.2660613871978872 2 5.2377428366751877 3.2660340108253196 2 11.678718310702171 3.2019570388899568 2 17.109114444211311 6.1310203109853578 2 24.955579811913747 1.7872267803554389 2 30.291958813235329 7.2642725272984103 2 42.467678522643446 1.09 2 44.54024550957444 4.8981812083291034 2 48.518981744459268 5.9686688071764351 2 54.689949546129426 2.9937843844207284 2 60.838938872552781 3.8276776212685428 2 62.958730132804554 4.1917756946273173 2 69.330214645768322 4.8120064619479752 2 69.148373580210446 2.62782313770788 2 71.458134607690297 5.4071964867739482 2 75.640946662331075 6.2711124666879332 2 86.443491538995701 3.3966966599552935 2 90.022646036651054 5.7907560217724372 2 95.987463432416249 7.1822258975799542 2 98.91 1.09 2 1.1303938442977519 1.09 2 5.3451055218919841 1.09 2 7.0896510953386285 8.0451124370111344 2 13.857882325893176 3.1456339830565616 2 16.004242571977876 3.5265243376922504 2 26.285052925365488 7.7325354996625126 2 31.14043952268042 3.6727875211853562 2 37.38546634075238 1.09 2 42.429013573834681 4.3652088981791701 2 44.304305643744058 7.0648871248171288 2 55.177617614176341 6.9935298123188483 2 55.76419330086901 1.09 2 66.023257321968018 5.1067867272966847 2 68.343110991002391 8.529398034699101 2 69.874598620790508 6.891096230839981 2 70.549679192529837 8.9700217966537288 2 75.175773556279069 10.464610295524359 2 88.020414627569068 10.377219177631124 2 92.169258657456567 5.8923624303130753 2 97.025690283299085 4.3286791279248362 2 98.91 3.2671450666847042 2 </DataArray>
</Points>
<Cells>
<DataArray Name="connectivity" format="ascii" type="Int32">0</DataArray>
<DataArray Name="offsets" format="ascii" type="Int32">0</DataArray>
<DataArray Name="types" format="ascii" type="UInt8">1</DataArray>
</Cells>
<PointData>
<DataArray Name="Points" NumberOfComponents="3" format="ascii" type="Float32">1.5645081577957831 5.410859048131452 2 7.5245799170977588 1.09 2 5.2398723754190604 5.4457640448401392 2 9.5127987944599024 4.5861039822643548 2 11.86091830766105 5.3810107611918152 2 15.305243406911181 7.4202057760473821 2 17.262951554245024 1.3900000000000003 2 24.305240628807123 3.866731409018358 2 27.399397920301698 1.3900000000000003 2 28.192423899870146 6.6777839791540918 2 30.176656977547953 1.3900000000000003 2 33.562444099338364 4.1955667619148187 2 38.845905301373996 4.0274110197551565 2 41.011987488396322 2.7127418870240079 2 45.416603717335725 2.9047161236791972 2 48.494715830262379 3.7887450679699346 2 51.007694867098323 3.4364226914163751 2 53.206146510302041 4.584599178112458 2 58.686798421139478 4.1991200391813681 2 63.156723858093976 1.45180572156744 2 62.947235102606761 6.3617458052989813 2 67.018873857689087 3.1905808921851047 2 70.54303472784062 1.09 2 73.47557369504014 6.5912623770777419 2 73.529245919253924 4.1062607190048963 2 77.761215838341371 5.8668841292920382 2 88.539438512105832 3.9020619260797016 2 90.683953410418226 3.716362316411117 2 93.19049888041198 3.6187491247452059 2 95.025312920043561 5.2189290699490494 2 96.75692052698254 1.09 2 1.09 3.2688273808415009 2 3.2378671085354576 1.6468923460167952 2 7.3753565631569131 5.8839166030452938 2 14.64800970932796 1.09 2 14.752939526022187 5.3113713843409212 2 25.132086950038538 5.8831910928667774 2 29.265128895561954 4.7811171739995544 2 39.562649507733617 1.09 2 41.005963742905685 6.0155546830802873 2 46.344776149225829 6.1187294447348393 2 55.803286897781106 4.9085261988841484 2 56.873951566438805 3.005174521892469 2 64.926893640857529 3.2144260527338169 2 67.762162701613505 6.4285216000279899 2 71.23148558384149 3.2354984443696444 2 72.701000837312279 8.6176945212172651 2 74.855562358573195 8.3118274559356244 2 89.342969755574941 8.6478175718177894 2 91.374623595093041 7.8777932204700898 2 95.445574606454358 2.8148630028138415 2 98.831202326776392 5.5139324903471607 2 9.9856220779222458 1.3900066866977441 2 19.587392242762245 2.913874188829324 2 26.875678219897662 4.1196263670750906 2 32.951902995221737 1.4245255949642577 2 35.512890791963741 6.1755414359976761 2 36.176395001918209 3.2537154592016861 2 49.122091364944481 1.3912431733844537 2 60.408904522521375 1.3900000000000003 2 73.020678883177595 1.4080692711199574 2 91.591288984717465 1.3900000000000003 2 3.16457208138337 3.9313320064392641 2 7.4155024693074063 3.2660613871978872 2 5.2377428366751877 3.2660340108253196 2 11.678718310702171 3.2019570388899568 2 17.109114444211311 6.1310203109853578 2 24.955579811913747 1.7872267803554389 2 30.291958813235329 7.2642725272984103 2 42.467678522643446 1.09 2 44.54024550957444 4.8981812083291034 2 48.518981744459268 5.9686688071764351 2 54.689949546129426 2.9937843844207284 2 60.838938872552781 3.8276776212685428 2 62.958730132804554 4.1917756946273173 2 69.330214645768322 4.8120064619479752 2 69.148373580210446 2.62782313770788 2 71.458134607690297 5.4071964867739482 2 75.640946662331075 6.2711124666879332 2 86.443491538995701 3.3966966599552935 2 90.022646036651054 5.7907560217724372 2 95.987463432416249 7.1822258975799542 2 98.91 1.09 2 1.1303938442977519 1.09 2 5.3451055218919841 1.09 2 7.0896510953386285 8.0451124370111344 2 13.857882325893176 3.1456339830565616 2 16.004242571977876 3.5265243376922504 2 26.285052925365488 7.7325354996625126 2 31.14043952268042 3.6727875211853562 2 37.38546634075238 1.09 2 42.429013573834681 4.3652088981791701 2 44.304305643744058 7.0648871248171288 2 55.177617614176341 6.9935298123188483 2 55.76419330086901 1.09 2 66.023257321968018 5.1067867272966847 2 68.343110991002391 8.529398034699101 2 69.874598620790508 6.891096230839981 2 70.549679192529837 8.9700217966537288 2 75.175773556279069 10.464610295524359 2 88.020414627569068 10.377219177631124 2 92.169258657456567 5.8923624303130753 2 97.025690283299085 4.3286791279248362 2 98.91 3.2671450666847042 2 </DataArray>
<DataArray Name="forces" NumberOfComponents="3" format="ascii" type="Float32">-0.00062085560009533835 0.000574510884059695 0.0 1.9696111172930381e-05 -0.0014894247951007546 0.0 -3.3328190923266498e-05 0.00030681579332108558 0.0 0.00074854612694552018 0.00078254973257870679 0.0 0.0010726792084936531 0.0003633472920165072 0.0 1.8859054901220655e-05 7.2024220601149639e-05 0.0 -9.8219139907861801e-05 -0.00052574317189992459 0.0 -0.00039042108214859214 0.00041527482396656944 0.0 -0.0013745591039355178 -0.00090659210751109867 0.0 -8.1684560434897111e-05 0.00063505592108932486 0.0 0.00077056536129127583 -0.0018047289731352252 0.0 0.00029141095987207351 0.0006735333723723925 0.0 0.00062710912172859448 0.00018176540435617112 0.0 0.00055443241703315898 0.0005212053829808062 0.0 -0.00072011263360583421 0.00093608092409936793 0.0 -1.3076149595470947e-06 -0.00012041772284145589 0.0 -0.00049488898606348615 -0.00018612733204837403 0.0 0.00015053941057896914 0.00082993357897113442 0.0 -0.010694922185164187 0.0029831862083541626 0.0 -0.013485654261947699 -0.011534963782045455 0.0 -5.045482020424138e-05 0.0036279040745095608 0.0 -0.059295494503940289 0.016853051833158661 0.0 -0.050731731844890854 -0.037746174194890202 0.0 -0.0076919754097019783 0.0082634168273950023 0.0 -0.032693162950444291 -0.0072765903801933641 0.0 -0.021160290834267827 -0.0037937068735209192 0.0 0.0040226643839099459 0.0037493058060676827 0.0 -0.012099568709876309 -0.00015665793833968778 0.0 0.048760659208006679 -0.0041829805768275954 0.0 -0.012339586231632458 -0.0038175332075073018 0.0 0.0079445900704309853 -0.037231695322665355 0.0 -0.0024561156310464235 0.00014485528362285995 0.0 -0.00020197485393073919 0.00018176453346810894 0.0 3.3852022407300381e-05 5.5956614996959966e-06 0.0 0.00027699941927105228 -1.2650107255381092e-06 0.0 -0.00011732529571661843 6.8446795011302858e-05 0.0 -8.391188260646921e-05 0.00086284786787829725 0.0 -0.00056629315760954352 0.00028086052880930718 0.0 0.0009815377496057427 -0.0032406173264365444 0.0 -0.00059612946953332968 0.00069198432027884954 0.0 0.00067601578944389586 0.00095605821711834986 0.0 -0.001838820218574245 0.0030990871718506638 0.0 0.0040269447645287695 -0.0037092927935138413 0.0 0.032591940632766887 -0.00081274037309075377 0.0 0.0042113000107148477 0.0036596128818132366 0.0 0.0 0.0 0.0 0.0026133620503459459 -5.9204755241975713e-06 0.0 -0.0016882880891309774 0.0039809523641662669 0.0 0.006158419724413302 0.0065797564286312043 0.0 0.01245813272367826 -0.0013508524659176895 0.0 -0.030598529253069676 0.017892858249633412 0.0 0.0 0.0 0.0 6.2827213002042978e-05 -1.316420292104688e-05 0.0 -0.00045997602628327998 9.7798643462323641e-05 0.0 -0.00046935654542047949 -4.5334084457399174e-05 0.0 -0.0008344045591939667 0.00075283204330116337 0.0 0.00053960889465346255 0.00054787067803126893 0.0 0.00058782680413060212 0.00022989246853996842 0.0 -0.0049854262356993657 0.00094016299065759527 0.0 0.017019174808798585 -0.0018928257586723579 0.0 0.056854802642623881 0.0089862550674283843 0.0 0.037222972169820845 -0.022177151378465449 0.0 8.9963694031424974e-05 0.001155309021643748 0.0 0.00069860332367578269 0.00024965458813291935 0.0 0.00030389649799750446 0.00025590756949284165 0.0 2.9002806225471696e-05 0.00017466841808390688 0.0 0.0 0.0 0.0 -0.0003297349269535798 0.00027915532577897856 0.0 5.4021484927863039e-05 1.5105478656951486e-05 0.0 -4.3971609687141284e-05 -2.5389363141886776e-06 0.0 0.00071966720613126061 0.00054479583376919034 0.0 0.00067121361432572249 7.4422579032276797e-05 0.0 -0.0048494255938051622 0.0021962004994557738 0.0 0.0075929257179358318 0.0014251255157264069 0.0 -0.021229500894627995 0.010613789740470378 0.0 0.0031039999966883157 0.03142748802466569 0.0 0.036192588897612253 -0.020664909868852006 0.0 -0.0040623440809014824 -0.00055820635351596856 0.0 0.009266140570717292 -0.0053913158905139272 0.0 0.0079743339664065833 0.018296222595858194 0.0 0.025770716450945377 -0.0013482673644689329 0.0 0.0055739364364762473 0.011484719811566603 0.0 0.019879690245254711 -0.0058578254075860592 0.0 -0.00022582398247041391 -0.00098688913015063801 0.0 -0.00019931276114738732 -0.0016392274149573905 0.0 -1.743026593529292e-07 1.3186398187332796e-06 0.0 4.9855953225698315e-05 -1.7781638477634794e-05 0.0 -1.6427263263060613e-05 0.00020675708428039073 0.0 -0.00025724542248012534 0.00065562443575378077 0.0 -0.0001582801934396172 0.00017105995649327639 0.0 -0.00021521594259763324 -0.00093107169424490668 0.0 0.0003035410675705499 0.0013671019796368717 0.0 -7.0929508832872414e-05 0.00065327787143646418 0.0 -0.00011333246635028707 0.0003771883946227547 0.0 0.01218275611254521 -0.0027933539720598356 0.0 -0.0050643004194716968 -0.0038481677833309474 0.0 0.0 0.0 0.0 -0.013082357626217645 -0.005102243661123133 0.0 0.0017658755696192893 0.014596736507687322 0.0 -0.0043860625132318646 0.00071978942893775096 0.0 0.0010090330223251902 0.0030468141933398599 0.0 -0.014355952925394991 0.033094129253187485 0.0 0.020920171653987331 0.012725506827442449 0.0 0.0044614484720913719 0.0033883397086370832 0.0 </DataArray>
<DataArray Name="radii" format="ascii" type="Float32">1.09 1.09 1.09 1.3900000000000003 1.09 1.09 1.3900000000000003 1.09 1.3900000000000003 1.09 1.3900000000000003 1.3900000000000003 1.3900000000000003 1.09 1.09 1.09 1.3900000000000003 1.09 1.09 1.3900000000000003 1.09 1.09 1.09 1.09 1.3900000000000003 1.09 1.09 1.09 1.3900000000000003 1.09 1.09 1.09 1.09 1.09 1.09 1.09 1.09 1.09 1.09 1.09 1.09 1.09 1.09 1.09 1.09 1.09 1.09 1.09 1.09 1.09 1.09 1.09 1.3900000000000003 1.3900000000000003 1.3900000000000003 1.3900000000000003 1.3900000000000003 1.3900000000000003 1.3900000000000003 1.3900000000000003 1.3900000000000003 1.3900000000000003 1.09 1.09 1.09 1.09 1.09 1.09 1.09 1.09 1.09 1.09 1.09 1.09 1.09 1.09 1.09 1.09 1.09 1.09 1.09 1.09 1.09 1.09 1.09 1.09 1.09 1.09 1.09 1.09 1.09 1.09 1.09 1.09 1.09 1.09 1.09 1.09 1.09 1.09 1.09 1.09 1.09 1.09 </DataArray>
</PointData>
<CellData/>
</Piece>
</UnstructuredGrid>
</VTKFile>
