<?xml version="1.0" ?>
<VTKFile byte_order="LittleEndian" type="UnstructuredGrid" version="0.1">
<UnstructuredGrid>
<Piece NumberOfCells="0" NumberOfPoints="52">
<Points>
<DataArray NumberOfComponents="3" format="ascii" type="Float32">2.0179119302834754 2.7216125379671374 2 4.9420159523341898 1.5977560642202944 2 6.038245746341266 3.2719367734719391 2 7.2607894060967029 1.310798472479997 2 11.421747574808059 2.2155646697608957 2 15.06532629121647 4.2258971614880165 2 16.501264757257509 1.3000000000000003 2 25.557665901639442 2.3070205295793733 2 27.655322268689552 1.3000000000000003 2 29.197645359815624 4.5618499559943082 2 31.383112114527243 1.3000000000000003 2 33.70587556124012 2.4079882570121809 2 37.644410795766674 1.7054505335408332 2 41.595736697776871 1.8796675121398825 2 43.257342827957117 2.7860027714420847 2 48.288778729726467 2.7612903415325265 2 50.053858985988398 1.3000000000000003 2 53.545770446212664 2.5750360407084498 2 58.523419420179124 3.2075259273943937 2 62.057373605405381 1.3232906453917828 2 65.225711022752563 3.0390850678022776 2 69.929444388150003 2.2946461479126032 2 71.422126596582757 1 2 74.684919458738747 2.660385229650863 2 76.548136275030785 1.3000000000000003 2 77.525899360891913 3.5318525370895832 2 86.488895506801285 2.5946541893309893 2 89.541034492796157 2.7088250786623624 2 91.354706864399958 1.3000000000000003 2 95.305148162417453 2.8118260590625592 2 98.799111564978176 1 2 1 1 2 3.0347513791677354 1 2 6.6640851593960715 5.1697741291107278 2 12.995552690664667 1 2 14.448179275926915 2.3396260939540214 2 26.245972825312549 4.1886157832211923 2 29.528894134786835 2.6083190161397209 2 39.742661803192711 1 2 42.191862339949111 4.4727099397197385 2 46.645088128545993 3.8915426047511397 2 54.970742065031438 3.9696124103304586 2 56.950351298105929 1.9617820206587686 2 67.20545350640883 3.2616108912496675 2 69.020868590663397 4.094342251973365 2 72.705149048658555 2.551145496173886 2 73.588279825975931 4.3291228968902526 2 76.053185253774572 4.881167521044274 2 86.362456807439926 4.5935447121727053 2 88.341153493378513 4.3049263649996217 2 96.888141482999501 1.5885794962208015 2 99.0 2.9900205989542115 2 </DataArray>
</Points>
<Cells>
<DataArray Name="connectivity" format="ascii" type="Int32">0</DataArray>
<DataArray Name="offsets" format="ascii" type="Int32">0</DataArray>
<DataArray Name="types" format="ascii" type="UInt8">1</DataArray>
</Cells>
<PointData>
<DataArray Name="Points" NumberOfComponents="3" format="ascii" type="Float32">2.0179119302834754 2.7216125379671374 2 4.9420159523341898 1.5977560642202944 2 6.038245746341266 3.2719367734719391 2 7.2607894060967029 1.310798472479997 2 11.421747574808059 2.2155646697608957 2 15.06532629121647 4.2258971614880165 2 16.501264757257509 1.3000000000000003 2 25.557665901639442 2.3070205295793733 2 27.655322268689552 1.3000000000000003 2 29.197645359815624 4.5618499559943082 2 31.383112114527243 1.3000000000000003 2 33.70587556124012 2.4079882570121809 2 37.644410795766674 1.7054505335408332 2 41.595736697776871 1.8796675121398825 2 43.257342827957117 2.7860027714420847 2 48.288778729726467 2.7612903415325265 2 50.053858985988398 1.3000000000000003 2 53.545770446212664 2.5750360407084498 2 58.523419420179124 3.2075259273943937 2 62.057373605405381 1.3232906453917828 2 65.225711022752563 3.0390850678022776 2 69.929444388150003 2.2946461479126032 2 71.422126596582757 1 2 74.684919458738747 2.660385229650863 2 76.548136275030785 1.3000000000000003 2 77.525899360891913 3.5318525370895832 2 86.488895506801285 2.5946541893309893 2 89.541034492796157 2.7088250786623624 2 91.354706864399958 1.3000000000000003 2 95.305148162417453 2.8118260590625592 2 98.799111564978176 1 2 1 1 2 3.0347513791677354 1 2 6.6640851593960715 5.1697741291107278 2 12.995552690664667 1 2 14.448179275926915 2.3396260939540214 2 26.245972825312549 4.1886157832211923 2 29.528894134786835 2.6083190161397209 2 39.742661803192711 1 2 42.191862339949111 4.4727099397197385 2 46.645088128545993 3.8915426047511397 2 54.970742065031438 3.9696124103304586 2 56.950351298105929 1.9617820206587686 2 67.20545350640883 3.2616108912496675 2 69.020868590663397 4.094342251973365 2 72.705149048658555 2.551145496173886 2 73.588279825975931 4.3291228968902526 2 76.053185253774572 4.881167521044274 2 86.362456807439926 4.5935447121727053 2 88.341153493378513 4.3049263649996217 2 96.888141482999501 1.5885794962208015 2 99.0 2.9900205989542115 2 </DataArray>
<DataArray Name="forces" NumberOfComponents="3" format="ascii" type="Float32">5.5947040399386417e-05 9.4624223715419068e-05 0.0 -0.00021030464328335944 -0.0035963496596930181 0.0 0.001906250593970874 0.0013890073104684915 0.0 -0.011302866527335857 0.00099559423557126435 0.0 -0.0090543812923472803 0.027745181806431568 0.0 0.0086113916782508716 0.026751873553418876 0.0 0.01861980691468209 -0.019189562866974701 0.0 -0.00085042479783610156 -0.0023247699654807739 0.0 -0.025295094177338412 -0.017396802226382003 0.0 -0.0067323765038068703 0.037139141718831599 0.0 0.00070894722357958684 -0.061916608078247531 0.0 0.00077087328162819824 0.062882820978306414 0.0 0.0089766391659850467 0.035857416065802575 0.0 0.082321256050877575 0.03983238772344621 0.0 -0.0018387141521240564 0.0039191563958178794 0.0 -0.0041161436796883508 0.0044457721515756771 0.0 -0.00071306225255936447 -0.008013587067360212 0.0 -0.0015910727960253132 0.010913077635977212 0.0 0.0070100298372077641 0.0055426811696914465 0.0 -0.0050015199766085868 0.0027763759037614582 0.0 -0.008811252596816083 0.027564683344837665 0.0 0.0054962875502803966 -0.010625563853116473 0.0 -0.011709251560363825 -0.014314921835848853 0.0 -0.0056106390101886578 0.0041115197130125744 0.0 0.0056106390101886578 -0.0041115197130125744 0.0 -0.0059684344843804167 -0.00075858645435074572 0.0 0.00037363196411729422 -0.0014068326622048925 0.0 -0.0025102578811753706 -1.5010756387386082e-05 0.0 0.0020241593530451619 -0.0044342479624823843 0.0 -0.00042595301927853257 0.00032912408093876576 0.0 0.0001109603593524629 -0.0007844701476710825 0.0 -5.5947040399386417e-05 -9.4624223715419068e-05 0.0 -0.0027091807683534879 -0.00085665364878632422 0.0 0.0010132348176659734 0.003063995998010851 0.0 -0.010328209334958059 -0.050126042916754376 0.0 -0.0020319156869758742 0.019156333620500308 0.0 0.00085042479783610156 0.0023247699654807739 0.0 -0.022170773676501242 0.018417476675224451 0.0 -0.02887298551110036 -0.056331099803677509 0.0 -0.00066935256525203508 0.0010603854145262307 0.0 -0.0075587332879258366 0.0052066142331211812 0.0 0.0058181962754989451 0.0057560262984743572 0.0 -0.0022366840457492812 -0.0033757990362494814 0.0 0.0066440029250319811 -0.0037911440937944737 0.0 0.0094593523225326055 0.017287330684152152 0.0 0.011709251560363825 0.014314921835848853 0.0 0.0 0.0 0.0 0.0 0.0 0.0 -0.0031489803670739346 0.0022076234847361754 0.0 -0.00058133548824803889 0.0043451381889175631 0.0 0.00024145911938726271 -0.00027227267565348623 0.0 7.3533540538806954e-05 0.00072761874238580298 0.0 </DataArray>
<DataArray Name="radii" format="ascii" type="Float32">1 1 1 1.3000000000000003 1 1 1.3000000000000003 1 1.3000000000000003 1 1.3000000000000003 1.3000000000000003 1.3000000000000003 1 1 1 1.3000000000000003 1 1 1.3000000000000003 1 1 1 1 1.3000000000000003 1 1 1 1.3000000000000003 1 1 1 1 1 1 1 1 1 1 1 1 1 1 1 1 1 1 1 1 1 1 1 </DataArray>
</PointData>
<CellData/>
</Piece>
</UnstructuredGrid>
</VTKFile>
