<?xml version="1.0" ?>
<VTKFile byte_order="LittleEndian" type="UnstructuredGrid" version="0.1">
<UnstructuredGrid>
<Piece NumberOfCells="0" NumberOfPoints="20">
<Points>
<DataArray NumberOfComponents="3" format="ascii" type="Float32">9.7877187670086698 1.1 2 18.498507455342107 2.3059968749409916 2 20.14642966426911 1 2 22.095585528691096 1.9845804780074994 2 24.073626035741771 1 2 35.65488422076087 1 2 44.145369609793342 1 2 46.248135982625591 1.1 2 52.244969931063608 1 2 55.765464249341136 1.1 2 59.819332112213637 1.1 2 64.4231771155345 1.1 2 67.699533109714451 1 2 79.341206198894454 1.1 2 83.024713698176441 1.4543663301121657 2 84.985066192711017 1 2 87.90058482700961 1 2 93.656985608672471 1.1 2 79.740307489811798 3.1842237662617974 2 81.689536489128059 3.3311337270015153 2 </DataArray>
</Points>
<Cells>
<DataArray Name="connectivity" format="ascii" type="Int32">0</DataArray>
<DataArray Name="offsets" format="ascii" type="Int32">0</DataArray>
<DataArray Name="types" format="ascii" type="UInt8">1</DataArray>
</Cells>
<PointData>
<DataArray Name="Points" NumberOfComponents="3" format="ascii" type="Float32">9.7877187670086698 1.1 2 18.498507455342107 2.3059968749409916 2 20.14642966426911 1 2 22.095585528691096 1.9845804780074994 2 24.073626035741771 1 2 35.65488422076087 1 2 44.145369609793342 1 2 46.248135982625591 1.1 2 52.244969931063608 1 2 55.765464249341136 1.1 2 59.819332112213637 1.1 2 64.4231771155345 1.1 2 67.699533109714451 1 2 79.341206198894454 1.1 2 83.024713698176441 1.4543663301121657 2 84.985066192711017 1 2 87.90058482700961 1 2 93.656985608672471 1.1 2 79.740307489811798 3.1842237662617974 2 81.689536489128059 3.3311337270015153 2 </DataArray>
<DataArray Name="forces" NumberOfComponents="3" format="ascii" type="Float32">-0.0017172393643925601 -0.0055770228659658312 0.0 0.0069992853785654603 0.012438280802462755 0.0 0.0066397497923174247 -0.0051852382520985443 0.0 -0.0081665931560516089 0.0040764259657756173 0.0 0.0037086614330293531 -0.0082935889240829744 0.0 -0.055513668565317809 -0.011493443908105975 0.0 -0.0062777076807243792 -0.0063708388557643164 0.0 0.0043323465388533464 -0.0056284817580989034 0.0 0.013620720279617188 -0.012931210712023411 0.0 -0.0021637801038209628 -0.010396320629261215 0.0 -0.0065880227421580909 -0.0093330142609815789 0.0 0.0096060684639958822 -0.0071656796682024087 0.0 -0.0072078939707460746 -0.016215989284246793 0.0 -0.0078486463809749364 -0.055282911030280386 0.0 0.029847771880926601 -0.047532031613887762 0.0 -0.014589468172446208 -0.028262525316119957 0.0 -1.7329759643794872e-05 -0.0034994591748575164 0.0 -0.058772080739351654 -0.024667000109021762 0.0 0.066695002772988621 0.040254425297962131 0.0 -0.021834904027080399 0.049909557243622719 0.0 </DataArray>
<DataArray Name="radii" format="ascii" type="Float32">1.1 1.1 1 1.2000000000000002 1 1 1 1.1 1 1.1 1.1 1.1 1 1.1 1.1 1 1 1.1 1 1.1 </DataArray>
</PointData>
<CellData/>
</Piece>
</UnstructuredGrid>
</VTKFile>
