<?xml version="1.0" ?>
<VTKFile byte_order="LittleEndian" type="UnstructuredGrid" version="0.1">
<UnstructuredGrid>
<Piece NumberOfCells="0" NumberOfPoints="18">
<Points>
<DataArray NumberOfComponents="3" format="ascii" type="Float32">9.7567050584274071 1.1 2 18.232662953990641 1.8594412017438473 2 20.168494919371803 1 2 22.101606570909674 1.7187434511969371 2 24.088890805925736 1 2 35.871505137121581 1 2 44.136253666052745 1 2 46.155718498818707 1.1 2 52.063239119881544 1 2 55.820262435786127 1.1 2 59.949669526746789 1.1 2 64.195868662633941 1.1 2 67.82021982160289 1 2 80.025957633187488 1.1 2 82.195386411698649 1.4513496919237552 2 84.241940913651547 1 2 88.021611685352923 1 2 94.155540097077164 1.1 2 </DataArray>
</Points>
<Cells>
<DataArray Name="connectivity" format="ascii" type="Int32">0</DataArray>
<DataArray Name="offsets" format="ascii" type="Int32">0</DataArray>
<DataArray Name="types" format="ascii" type="UInt8">1</DataArray>
</Cells>
<PointData>
<DataArray Name="Points" NumberOfComponents="3" format="ascii" type="Float32">9.7567050584274071 1.1 2 18.232662953990641 1.8594412017438473 2 20.168494919371803 1 2 22.101606570909674 1.7187434511969371 2 24.088890805925736 1 2 35.871505137121581 1 2 44.136253666052745 1 2 46.155718498818707 1.1 2 52.063239119881544 1 2 55.820262435786127 1.1 2 59.949669526746789 1.1 2 64.195868662633941 1.1 2 67.82021982160289 1 2 80.025957633187488 1.1 2 82.195386411698649 1.4513496919237552 2 84.241940913651547 1 2 88.021611685352923 1 2 94.155540097077164 1.1 2 </DataArray>
<DataArray Name="forces" NumberOfComponents="3" format="ascii" type="Float32">-0.06897537545120043 -0.0030381852875394082 0.0 -0.019608743278996903 0.013433003221660056 0.0 0.021619380700638589 -0.012407593105440012 0.0 -0.015693790748018643 0.0081679792611634022 0.0 0.015248402714116153 -0.0090906079188570986 0.0 0.092941817599500348 -0.008789220059014731 0.0 0.048261741777357321 -0.027554205494516319 0.0 -0.024270109870750543 -0.014580499682484061 0.0 0.0097351787597460514 -0.0025368159616439129 0.0 -0.0039833331820171456 -0.0066106218685320923 0.0 -0.013161118056168661 -0.0008260084940579259 0.0 -0.0084414672606484987 -0.0059376965153194938 0.0 -0.0012671110281154967 -0.0025690940654670077 0.0 -0.0019740286316271408 -0.0026016709928764403 0.0 0.00041058080101057971 0.0018242935849128261 0.0 0.00045629429963542703 -0.003463546420752338 0.0 -0.0025703903904367694 -0.0056885235036049676 0.0 -0.0030953018439966277 -0.001424879798696281 0.0 </DataArray>
<DataArray Name="radii" format="ascii" type="Float32">1.1 1.1 1 1.1 1 1 1 1.1 1 1.1 1.1 1.1 1 1.1 1.1 1 1 1.1 </DataArray>
</PointData>
<CellData/>
</Piece>
</UnstructuredGrid>
</VTKFile>
