<?xml version="1.0" ?>
<VTKFile byte_order="LittleEndian" type="UnstructuredGrid" version="0.1">
<UnstructuredGrid>
<Piece NumberOfCells="0" NumberOfPoints="77">
<Points>
<DataArray NumberOfComponents="3" format="ascii" type="Float32">12.900361770047448 1.1 2 21.413366276584501 7.1547937165295519 2 20.90055180720114 1 2 21.80232955154224 2.9948730293801216 2 22.907323164947613 1 2 35.463623248475493 1 2 44.905860051577029 1 2 46.937950905182532 1.1 2 51.308433734978514 1 2 53.33292399861719 1.1 2 58.060356051775003 1.1 2 64.789965139282884 1.1 2 66.778625453359467 1 2 82.110632378915639 1.6900850938111571 2 86.87044724220226 4.8126007731860838 2 87.794373585690806 1 2 89.641425016374455 1 2 93.823305443110499 1.1 2 74.453176614822425 14.777291985926331 2 84.348390152279308 15.975375129032331 2 76.395167904509208 1.1 2 87.624437332018744 6.7561699564264197 2 76.502038709958242 14.351000883383881 2 78.393323337047391 4.8652918247820951 2 83.480564816195212 7.3411361287975563 2 80.433621688361441 15.74996665158473 2 74.46579330711765 1 2 89.699628959196588 14.885317808164642 2 82.443750956940875 9.0855199005699454 2 80.329653247621849 5.5941503686910519 2 83.928694491155369 1 2 79.244025957288699 17.47752525887136 2 73.108440490858158 3.411726669316959 2 89.561636444572329 10.151133078415011 2 79.713456654728404 11.605947842512846 2 86.195440933982169 12.612546786487558 2 90.85751778786701 12.730961709451948 2 79.451610831190905 3.0430579719662041 2 85.869990227656842 1.1 2 82.164048157107302 17.063319116501305 2 76.320121356167917 4.9538386314899885 2 88.855722303886736 8.3534695219353008 2 75.104766176640908 12.816266601778954 2 82.648856205660309 11.139802717048219 2 85.956726186628401 14.655234215503263 2 81.38021388105679 3.7113324513161636 2 75.383890093792715 6.8187967617675804 2 80.411142627017128 9.5337577970994083 2 87.948612368656114 13.731077197057322 2 87.300204350356836 10.77888480410876 2 76.595789813540904 8.4073251181907054 2 84.795128759901075 8.9521600059517716 2 80.351435509106253 1 2 84.671420484342093 5.0750150435790768 2 82.45062925940455 14.886702811269924 2 78.414817637940814 1.1174822956545702 2 85.601055845684996 7.0022880776297107 2 78.243546340030406 15.640616301482023 2 82.539303915222263 5.4939949266994601 2 79.459248760794836 13.811146021318191 2 87.699925077964963 15.807732233156132 2 79.386049526021736 7.593266579716575 2 74.241709558497618 5.1622864533531292 2 77.735599230777765 12.546680065210698 2 84.100633523593913 12.627551260183614 2 88.920976379309494 12.014337807949405 2 77.324644082028499 3.0540926573577973 2 85.614575088412451 3.1461072283887122 2 83.497383143579071 18.798513734792532 2 75.211046617688808 2.9525340115853278 2 81.453574254992219 12.94466672222898 2 83.528130567544878 3.3071707980869665 2 78.328912103061796 9.3903377955669818 2 86.826118467766022 8.7114234835213331 2 77.535237208537467 6.6581261068613058 2 81.457042649210564 7.3519513909818794 2 85.057279459744109 10.866440179316388 2 </DataArray>
</Points>
<Cells>
<DataArray Name="connectivity" format="ascii" type="Int32">0</DataArray>
<DataArray Name="offsets" format="ascii" type="Int32">0</DataArray>
<DataArray Name="types" format="ascii" type="UInt8">1</DataArray>
</Cells>
<PointData>
<DataArray Name="Points" NumberOfComponents="3" format="ascii" type="Float32">12.900361770047448 1.1 2 21.413366276584501 7.1547937165295519 2 20.90055180720114 1 2 21.80232955154224 2.9948730293801216 2 22.907323164947613 1 2 35.463623248475493 1 2 44.905860051577029 1 2 46.937950905182532 1.1 2 51.308433734978514 1 2 53.33292399861719 1.1 2 58.060356051775003 1.1 2 64.789965139282884 1.1 2 66.778625453359467 1 2 82.110632378915639 1.6900850938111571 2 86.87044724220226 4.8126007731860838 2 87.794373585690806 1 2 89.641425016374455 1 2 93.823305443110499 1.1 2 74.453176614822425 14.777291985926331 2 84.348390152279308 15.975375129032331 2 76.395167904509208 1.1 2 87.624437332018744 6.7561699564264197 2 76.502038709958242 14.351000883383881 2 78.393323337047391 4.8652918247820951 2 83.480564816195212 7.3411361287975563 2 80.433621688361441 15.74996665158473 2 74.46579330711765 1 2 89.699628959196588 14.885317808164642 2 82.443750956940875 9.0855199005699454 2 80.329653247621849 5.5941503686910519 2 83.928694491155369 1 2 79.244025957288699 17.47752525887136 2 73.108440490858158 3.411726669316959 2 89.561636444572329 10.151133078415011 2 79.713456654728404 11.605947842512846 2 86.195440933982169 12.612546786487558 2 90.85751778786701 12.730961709451948 2 79.451610831190905 3.0430579719662041 2 85.869990227656842 1.1 2 82.164048157107302 17.063319116501305 2 76.320121356167917 4.9538386314899885 2 88.855722303886736 8.3534695219353008 2 75.104766176640908 12.816266601778954 2 82.648856205660309 11.139802717048219 2 85.956726186628401 14.655234215503263 2 81.38021388105679 3.7113324513161636 2 75.383890093792715 6.8187967617675804 2 80.411142627017128 9.5337577970994083 2 87.948612368656114 13.731077197057322 2 87.300204350356836 10.77888480410876 2 76.595789813540904 8.4073251181907054 2 84.795128759901075 8.9521600059517716 2 80.351435509106253 1 2 84.671420484342093 5.0750150435790768 2 82.45062925940455 14.886702811269924 2 78.414817637940814 1.1174822956545702 2 85.601055845684996 7.0022880776297107 2 78.243546340030406 15.640616301482023 2 82.539303915222263 5.4939949266994601 2 79.459248760794836 13.811146021318191 2 87.699925077964963 15.807732233156132 2 79.386049526021736 7.593266579716575 2 74.241709558497618 5.1622864533531292 2 77.735599230777765 12.546680065210698 2 84.100633523593913 12.627551260183614 2 88.920976379309494 12.014337807949405 2 77.324644082028499 3.0540926573577973 2 85.614575088412451 3.1461072283887122 2 83.497383143579071 18.798513734792532 2 75.211046617688808 2.9525340115853278 2 81.453574254992219 12.94466672222898 2 83.528130567544878 3.3071707980869665 2 78.328912103061796 9.3903377955669818 2 86.826118467766022 8.7114234835213331 2 77.535237208537467 6.6581261068613058 2 81.457042649210564 7.3519513909818794 2 85.057279459744109 10.866440179316388 2 </DataArray>
<DataArray Name="forces" NumberOfComponents="3" format="ascii" type="Float32">0.0029902943783674868 -0.015640697639684072 0.0 0.0023075046147777081 0.0086094960111324642 0.0 -0.0022061892823470519 -0.010276220606226457 0.0 -9.0157665005835552e-05 -6.0976523066101629e-05 0.0 0.0 0.0 0.0 -0.0013239965411392524 -0.019904695421339942 0.0 -0.0041472370223910801 -0.037644608913716848 0.0 -0.0036607932212980032 -0.0057322435588667529 0.0 -0.0050324766855387726 -0.010462796170303407 0.0 -0.0053246642352927503 -0.019977920574844349 0.0 -0.0065900217524967886 -0.014286040563775332 0.0 -0.0070777159170633246 -0.00018841269829286732 0.0 -0.0012322273244047381 -0.047804106974706398 0.0 -0.092887764318482779 -0.10083008968849144 0.0 0.0077972552146377827 0.02376107765470141 0.0 -0.0015327475513558231 -0.064032049580999256 0.0 0.0013610190086568441 -0.015653598806660285 0.0 0.00080361644731705368 -0.076729956254286219 0.0 -0.0080255888837938386 0.0050248913840135016 0.0 -0.0059102786484474829 0.019431510162224976 0.0 0.0086618130152149534 -0.015841950347381492 0.0 -0.20626342219962496 0.088975224533817121 0.0 0.01744958061449102 0.026876618225306133 0.0 -0.025964348434268331 0.011137459500117394 0.0 -0.2907309335998105 -0.06849145846329012 0.0 0.023563491727081724 0.020507498167476226 0.0 -0.026677010250705319 -0.042272060758617433 0.0 0.010446218901963801 0.006431632170787154 0.0 0.014381874461480371 -0.049124104016297437 0.0 -0.017859982193509358 -0.069398750736906739 0.0 0.010329515726751615 -0.073090125793152452 0.0 0.0041810742118136542 0.017188038546605552 0.0 -0.042080019122623963 0.012855519959244046 0.0 -0.0046402182329970624 0.0095843920924738243 0.0 -0.0025258392417458562 0.0029927051198580983 0.0 0.041986822042273796 0.035669205655872407 0.0 0.019839868809403895 0.022704692691085954 0.0 0.1366417060534352 0.022588390288687522 0.0 -0.0046867336636854662 -0.14240957432525339 0.0 0.0055978408770688565 -0.00016630519952084283 0.0 0.072997663323604162 -0.06684348004571794 0.0 0.04934943834664364 0.053986940598059793 0.0 -0.023712176809772712 -0.011758795424663022 0.0 0.013804598593206454 0.037510755085466696 0.0 0.0017418590717369412 0.019152538722415527 0.0 -0.2184276067431056 0.014394830485425204 0.0 -0.02669385996992267 0.058097793737739052 0.0 -0.026527154001791824 0.0064940685145557734 0.0 -0.019560203003220838 -0.00088784710218998281 0.0 0.026817136930029618 0.10431286849819295 0.0 -0.034059981657028227 0.022258400524406974 0.0 0.069926226521050627 0.13455449462753993 0.0 0.044265947212864004 -0.071775182728149645 0.0 -0.084219033682387354 -0.17877761675039638 0.0 -0.00099498081812102526 0.011496744247402142 0.0 -0.057837978471837921 -0.039062185007670946 0.0 0.31488903271525498 0.10840134667201533 0.0 -0.010359833538933296 0.0018844704794511828 0.0 0.085186210695595579 0.10908384348470634 0.0 -0.0073330168621912016 0.0026754841504741354 0.0 0.0080663401642790261 0.021332065557899533 0.0 -0.094154502541486981 0.026249487653614879 0.0 -0.041279765168145972 0.01358735197372511 0.0 0.025594301271026978 0.036255461055330035 0.0 -0.034381301851138052 0.024696274865209211 0.0 -0.015931818592352456 0.015485549720884988 0.0 -0.10943461863129428 0.020260905438771463 0.0 -0.090144414212168511 0.060270690518353529 0.0 0.0095190365884157552 0.012371149086806839 0.0 0.044856561109276806 -0.0011382920303045496 0.0 0.012786158990579468 -0.0077717626167347516 0.0 0.26717306184616407 0.097892875701655169 0.0 0.017017445052138761 0.009782615085493546 0.0 -0.10486544680860524 -0.13294515499991835 0.0 0.020377730941191288 -0.02649437710373688 0.0 0.11387125986354554 0.045082654584420498 0.0 -0.016939667083492389 -0.058320395728169938 0.0 </DataArray>
<DataArray Name="radii" format="ascii" type="Float32">1.1 1.1 1 1.2000000000000002 1 1 1 1.1 1 1.1 1.1 1.1 1 1.1 1.1 1 1 1.1 1 1.1 1.1 1.1 1.1 1 1.1 1.1 1 1.1 1 1.1 1 1 1.1 1 1.1 1.1 1.1 1.1 1.1 1.1 1.1 1 1 1.1 1 1.1 1 1.1 1 1.1 1 1 1 1.1 1.1 1.1 1.1 1.1 1.1 1.1 1.1 1.1 1 1.1 1 1 1.1 1.1 1.1 1.1 1.1 1.1 1 1.1 1 1 1 </DataArray>
</PointData>
<CellData/>
</Piece>
</UnstructuredGrid>
</VTKFile>
