<?xml version="1.0" ?>
<VTKFile byte_order="LittleEndian" type="UnstructuredGrid" version="0.1">
<UnstructuredGrid>
<Piece NumberOfCells="0" NumberOfPoints="31">
<Points>
<DataArray NumberOfComponents="3" format="ascii" type="Float32">1.3800000000000001 1.3800000000000001 2 4.1346877720349413 1.3800000000000001 2 6.0438784839262132 3.3533385415096717 2 7.471502476775747 1.2100000000000002 2 12.24873402217591 1.3800000000000001 2 14.511666081175553 2.9183924726812833 2 16.464850785060079 1.2100000000000002 2 25.78413050289954 2.6476733093148823 2 27.949377099584908 1.2100000000000002 2 29.613653617782468 3.1982125585546779 2 31.220443827393414 1.2100000000000002 2 33.672986467769249 1.6062581246194045 2 37.952595380199853 1.2192181789585614 2 40.425353993240236 1.3800000000000001 2 42.742935942734 2.9178063336715354 2 48.023222790877561 2.8288440076049635 2 50.023963459445525 1.2100000000000002 2 53.883937699330758 2.7153018715078945 2 57.795781650706182 2.5236945205259684 2 62.121541310015438 1.2142336820792829 2 66.188024261308328 2.8352633813062518 2 69.415696262371569 2.6520947266588659 2 71.87094935726661 1.3800000000000001 2 74.275702781479907 2.7453674608960488 2 76.353549497639349 1.2100000000000002 2 77.280219923282672 3.614115276912226 2 86.456611136271718 2.9097648351528664 2 89.407624090990467 2.842918322145783 2 91.456896308721113 1.2100000000000002 2 96.012849304490203 2.0840521302858503 2 98.62 1.3800000000000001 2 </DataArray>
</Points>
<Cells>
<DataArray Name="connectivity" format="ascii" type="Int32">0</DataArray>
<DataArray Name="offsets" format="ascii" type="Int32">0</DataArray>
<DataArray Name="types" format="ascii" type="UInt8">1</DataArray>
</Cells>
<PointData>
<DataArray Name="Points" NumberOfComponents="3" format="ascii" type="Float32">1.3800000000000001 1.3800000000000001 2 4.1346877720349413 1.3800000000000001 2 6.0438784839262132 3.3533385415096717 2 7.471502476775747 1.2100000000000002 2 12.24873402217591 1.3800000000000001 2 14.511666081175553 2.9183924726812833 2 16.464850785060079 1.2100000000000002 2 25.78413050289954 2.6476733093148823 2 27.949377099584908 1.2100000000000002 2 29.613653617782468 3.1982125585546779 2 31.220443827393414 1.2100000000000002 2 33.672986467769249 1.6062581246194045 2 37.952595380199853 1.2192181789585614 2 40.425353993240236 1.3800000000000001 2 42.742935942734 2.9178063336715354 2 48.023222790877561 2.8288440076049635 2 50.023963459445525 1.2100000000000002 2 53.883937699330758 2.7153018715078945 2 57.795781650706182 2.5236945205259684 2 62.121541310015438 1.2142336820792829 2 66.188024261308328 2.8352633813062518 2 69.415696262371569 2.6520947266588659 2 71.87094935726661 1.3800000000000001 2 74.275702781479907 2.7453674608960488 2 76.353549497639349 1.2100000000000002 2 77.280219923282672 3.614115276912226 2 86.456611136271718 2.9097648351528664 2 89.407624090990467 2.842918322145783 2 91.456896308721113 1.2100000000000002 2 96.012849304490203 2.0840521302858503 2 98.62 1.3800000000000001 2 </DataArray>
<DataArray Name="forces" NumberOfComponents="3" format="ascii" type="Float32">-0.047351912639152172 0.0 0.0 0.02803836885914214 -0.019414642268070787 0.0 0.016027125368765757 0.02404389338806865 0.0 -0.029586409575107067 -0.0030393975705921613 0.0 0.01957100431080469 -0.005862321277281415 0.0 -0.00044961611752762642 0.023128081415537835 0.0 0.001829643986583954 -0.020531633372060504 0.0 -0.0056243763138764226 0.010880474523932189 0.0 0.0040974508618469149 -0.013714957767781064 0.0 0.0003107903953525424 0.013734120366987531 0.0 -0.042313689497720436 -0.014430462090920158 0.0 0.032031056097946813 0.012187920913041803 0.0 0.057778619369894327 0.0061480647120314693 0.0 -0.0075189539560109372 -0.013116094641720628 0.0 0.016753354740395791 0.01987796732217181 0.0 -0.0010490111452757167 0.012036623707451946 0.0 -0.016537138769269238 -0.0035784036064508769 0.0 0.004554727471730571 0.015508692324849103 0.0 -0.0041871286302197809 0.013921422577083595 0.0 0.0025539571855106892 0.0017046943922028311 0.0 0.0021518965945726137 0.011667102669853956 0.0 -0.012636161249836207 0.023255580688785055 0.0 -0.0002300944025627992 -0.026025937945342151 0.0 0.012960314915519779 0.021992232353515495 0.0 0.003366202547444545 -0.027046290652520275 0.0 -0.064455202852640059 0.032900260658677627 0.0 0.018957934867165786 0.028557469568246369 0.0 -0.015335496201308188 0.015196608164339273 0.0 0.016768391160892678 -0.013492001609882169 0.0 0.026517669177332837 0.032649819634604338 0.0 0.032254411562018817 -0.0079828195255825726 0.0 </DataArray>
<DataArray Name="radii" format="ascii" type="Float32">1.3800000000000001 1.3800000000000001 1.3800000000000001 1.2100000000000002 1.3800000000000001 1.3800000000000001 1.2100000000000002 1.3800000000000001 1.2100000000000002 1.3800000000000001 1.2100000000000002 1.2100000000000002 1.2100000000000002 1.3800000000000001 1.3800000000000001 1.3800000000000001 1.2100000000000002 1.3800000000000001 1.3800000000000001 1.2100000000000002 1.3800000000000001 1.3800000000000001 1.3800000000000001 1.3800000000000001 1.2100000000000002 1.3800000000000001 1.3800000000000001 1.3800000000000001 1.2100000000000002 1.3800000000000001 1.3800000000000001 </DataArray>
</PointData>
<CellData/>
</Piece>
</UnstructuredGrid>
</VTKFile>
