<?xml version="1.0" ?>
<VTKFile byte_order="LittleEndian" type="UnstructuredGrid" version="0.1">
<UnstructuredGrid>
<Piece NumberOfCells="0" NumberOfPoints="29">
<Points>
<DataArray NumberOfComponents="3" format="ascii" type="Float32">11.08641133602077 1.1 2 19.650773963382701 3.2851755324664946 2 20.111876089870869 1 2 21.896053876410797 2.2975286868532097 2 23.671045584367519 1 2 34.87442177231086 1 2 44.418767502556605 1 2 46.511789621466448 1.1139230261302118 2 52.461261385602093 1 2 54.551998852419331 1.1 2 58.651914869676631 1.1 2 65.026279864877679 1.1 2 67.476382891117765 1 2 82.218619647755503 1.2000000000000002 2 84.504449109068275 1.2000000000000002 2 86.784234978470664 1 2 88.662890275092821 1 2 93.717149249477671 1.1 2 78.23657142958497 6.6191821002892137 2 82.385234909568325 8.130447113080427 2 78.142600842737409 2.1829805861917637 2 84.762251715976205 4.7695323300265082 2 80.0999821058154 5.3357734693301389 2 80.211956280902299 2.2566869589384178 2 83.369288290147594 2.9369426474865485 2 82.52217272348696 5.7074121513046752 2 76.273849876779266 1 2 84.564405974544314 7.0606859513556159 2 81.520839880483862 3.8045813335733651 2 </DataArray>
</Points>
<Cells>
<DataArray Name="connectivity" format="ascii" type="Int32">0</DataArray>
<DataArray Name="offsets" format="ascii" type="Int32">0</DataArray>
<DataArray Name="types" format="ascii" type="UInt8">1</DataArray>
</Cells>
<PointData>
<DataArray Name="Points" NumberOfComponents="3" format="ascii" type="Float32">11.08641133602077 1.1 2 19.650773963382701 3.2851755324664946 2 20.111876089870869 1 2 21.896053876410797 2.2975286868532097 2 23.671045584367519 1 2 34.87442177231086 1 2 44.418767502556605 1 2 46.511789621466448 1.1139230261302118 2 52.461261385602093 1 2 54.551998852419331 1.1 2 58.651914869676631 1.1 2 65.026279864877679 1.1 2 67.476382891117765 1 2 82.218619647755503 1.2000000000000002 2 84.504449109068275 1.2000000000000002 2 86.784234978470664 1 2 88.662890275092821 1 2 93.717149249477671 1.1 2 78.23657142958497 6.6191821002892137 2 82.385234909568325 8.130447113080427 2 78.142600842737409 2.1829805861917637 2 84.762251715976205 4.7695323300265082 2 80.0999821058154 5.3357734693301389 2 80.211956280902299 2.2566869589384178 2 83.369288290147594 2.9369426474865485 2 82.52217272348696 5.7074121513046752 2 76.273849876779266 1 2 84.564405974544314 7.0606859513556159 2 81.520839880483862 3.8045813335733651 2 </DataArray>
<DataArray Name="forces" NumberOfComponents="3" format="ascii" type="Float32">0.014680408999847745 -0.00265139973307229 0.0 0.0 0.0 0.0 -0.0015730800824382478 -0.0030446906941060566 0.0 0.0028955230409482913 0.0027903393164925958 0.0 0.00039189212806748806 -0.00050211655753225652 0.0 -0.0031600989313278855 -0.0071287765663757968 0.0 0.0025393530846071306 -0.0015033669958385209 0.0 0.0011228830054385551 6.0973987092511272e-05 0.0 -0.00039266342726991402 -0.0032414855740327984 0.0 -0.0020556539634458333 -0.003179165531891385 0.0 -0.01065146335666697 -0.0063579945393212114 0.0 0.0059244291371383191 -0.0028666613474886771 0.0 -0.0010915495951323944 -0.00089324076919425626 0.0 0.040230901154409207 -0.043911785829184494 0.0 -0.040135842776125134 -0.010793097016092861 0.0 0.031544304569210348 -0.0084939630955692784 0.0 -0.020877679175005139 -0.015568104464023378 0.0 -0.008078861297954279 -0.0038770134976236783 0.0 -0.021027514385694588 0.021373017988870927 0.0 -0.0068783952794423588 0.010054921814981996 0.0 0.015636551241705175 -0.0056243604686413498 0.0 0.031065791060192197 0.050292048529356391 0.0 0.015713728458030908 -0.0076094602098030258 0.0 -0.030031405768895441 0.0058210934214567578 0.0 0.0040284768171735125 -0.035999612039666867 0.0 0.00035414019310705928 -0.006891429224699222 0.0 -0.027667523637004095 -0.0661075452118038 0.0 0.0065242550863352997 -0.0031634925902827753 0.0 -0.015753619609379682 0.032725415891292943 0.0 </DataArray>
<DataArray Name="radii" format="ascii" type="Float32">1.1 1.1 1 1.2000000000000002 1 1 1 1.1 1 1.1 1.1 1.1 1 1.2000000000000002 1.2000000000000002 1 1 1.1 1 1.2000000000000002 1.2000000000000002 1.2000000000000002 1.2000000000000002 1 1 1.2000000000000002 1 1.2000000000000002 1 </DataArray>
</PointData>
<CellData/>
</Piece>
</UnstructuredGrid>
</VTKFile>
