<?xml version="1.0" ?>
<VTKFile byte_order="LittleEndian" type="UnstructuredGrid" version="0.1">
<UnstructuredGrid>
<Piece NumberOfCells="0" NumberOfPoints="29">
<Points>
<DataArray NumberOfComponents="3" format="ascii" type="Float32">11.740097590168592 1.1 2 20.291812984403684 4.2182182458891466 2 20.755603267125526 1 2 22.06447043340469 2.756103086041926 2 23.657233974474398 1 2 35.098191773831694 1 2 44.472951170713003 1 2 46.569870488123563 1.1189679406321233 2 52.350662752850255 1 2 54.448266646925624 1.1 2 58.501489433948905 1.1 2 65.201649971967186 1.1 2 67.298687156099945 1 2 81.744710912430108 1.5000000000000004 2 84.793491432977689 1.5000000000000004 2 87.099609530772838 1 2 89.165531995565331 1 2 93.620660875779237 1.1 2 77.808508375924859 7.4874882709921602 2 81.970562217299957 9.7310288159619525 2 77.709051204838886 2.4683249468989845 2 85.183122709706808 5.4941321125585381 2 79.596385882435641 5.7621811982351101 2 80.09851423593777 3.308720809957757 2 83.516582123256484 3.6705425634226048 2 82.475563630664581 6.7889151028911749 2 75.773211421359221 1 2 84.936582693322649 8.4891151312880222 2 81.697741641734638 4.397975309135207 2 </DataArray>
</Points>
<Cells>
<DataArray Name="connectivity" format="ascii" type="Int32">0</DataArray>
<DataArray Name="offsets" format="ascii" type="Int32">0</DataArray>
<DataArray Name="types" format="ascii" type="UInt8">1</DataArray>
</Cells>
<PointData>
<DataArray Name="Points" NumberOfComponents="3" format="ascii" type="Float32">11.740097590168592 1.1 2 20.291812984403684 4.2182182458891466 2 20.755603267125526 1 2 22.06447043340469 2.756103086041926 2 23.657233974474398 1 2 35.098191773831694 1 2 44.472951170713003 1 2 46.569870488123563 1.1189679406321233 2 52.350662752850255 1 2 54.448266646925624 1.1 2 58.501489433948905 1.1 2 65.201649971967186 1.1 2 67.298687156099945 1 2 81.744710912430108 1.5000000000000004 2 84.793491432977689 1.5000000000000004 2 87.099609530772838 1 2 89.165531995565331 1 2 93.620660875779237 1.1 2 77.808508375924859 7.4874882709921602 2 81.970562217299957 9.7310288159619525 2 77.709051204838886 2.4683249468989845 2 85.183122709706808 5.4941321125585381 2 79.596385882435641 5.7621811982351101 2 80.09851423593777 3.308720809957757 2 83.516582123256484 3.6705425634226048 2 82.475563630664581 6.7889151028911749 2 75.773211421359221 1 2 84.936582693322649 8.4891151312880222 2 81.697741641734638 4.397975309135207 2 </DataArray>
<DataArray Name="forces" NumberOfComponents="3" format="ascii" type="Float32">0.099349092731757863 -0.0062202092484105872 0.0 0.011493356388987229 0.016336239429310551 0.0 0.011465250133930708 -0.011480281007717837 0.0 -0.00480687902083414 0.00079184006542542119 0.0 0.0 0.0 0.0 -1.6077916929549282e-05 -5.3321147240066087e-05 0.0 -0.000496865462705996 -2.8194782802179538e-05 0.0 0.000496865462705996 2.8194782802179538e-05 0.0 0.0 0.0 0.0 -3.0357486976980382e-05 -0.00016836966573325989 0.0 -0.00028042304797970378 -4.0297135601598442e-05 0.0 0.00041239091214149976 -0.00021628369915190041 0.0 -0.0004130176364168796 -0.00059228348750936836 0.0 -0.043980015101167565 -0.0042917608370023272 0.0 0.077766235040963194 -0.052494664564262397 0.0 -0.11211770792827512 -0.0052632228853428152 0.0 0.11218403511145425 0.0 0.0 0.12593686539272955 -0.011832805255833146 0.0 0.0 0.0 0.0 0.0 0.0 0.0 -0.062870664576891722 -0.02230191959281571 0.0 -0.0057993423813231691 -0.0084742896702132142 0.0 -0.013514010332351029 0.01978770915575119 0.0 0.058257127134524328 0.011583953769668642 0.0 -0.014883464066313867 0.040761700273761456 0.0 0.007441372120761131 0.025098183370839293 0.0 0.033720376124233835 -0.0036903543702751147 0.0 -0.00049241677370091971 0.0058590318006054559 0.0 -0.012412276069937661 -0.021907474430108206 0.0 </DataArray>
<DataArray Name="radii" format="ascii" type="Float32">1.1 1.1 1 1.2000000000000002 1 1 1 1.1 1 1.1 1.1 1.1 1 1.5000000000000004 1.5000000000000004 1 1 1.1 1 1.5000000000000004 1.5000000000000004 1.5000000000000004 1.5000000000000004 1 1 1.5000000000000004 1 1.5000000000000004 1 </DataArray>
</PointData>
<CellData/>
</Piece>
</UnstructuredGrid>
</VTKFile>
