<?xml version="1.0" ?>
<VTKFile byte_order="LittleEndian" type="UnstructuredGrid" version="0.1">
<UnstructuredGrid>
<Piece NumberOfCells="0" NumberOfPoints="29">
<Points>
<DataArray NumberOfComponents="3" format="ascii" type="Float32">11.108569681945193 1.1 2 19.537126748449776 3.1762035510613464 2 20.111072680757331 1 2 21.912200398783838 2.2633271427957413 2 23.713066031737615 1 2 34.995546891732999 1 2 44.292285176897927 1 2 46.393540308437984 1.107644273788666 2 52.548040578177925 1 2 54.637919184319898 1.1 2 58.786053788689685 1.1000767849329707 2 64.851347805634646 1.1 2 67.610954005873197 1 2 81.97077452078689 1.0540696168024344 2 84.532019553554136 1 2 86.485933244628455 1 2 88.48411505881208 1 2 93.978756146426306 1.1 2 78.567071925044928 5.7821365867299201 2 82.590489176525267 7.64516552166116 2 78.252501789749246 2.1801403988674477 2 83.975356588991716 4.425213997295498 2 80.476967499102884 5.1196462084613641 2 80.206405066859588 2.0073078569188665 2 83.362802767698255 2.5160774257655825 2 82.382352440883338 5.6521772524707323 2 76.649618323279157 1 2 84.515527003653503 6.3522503739821161 2 81.749085029396227 3.7066339377924176 2 </DataArray>
</Points>
<Cells>
<DataArray Name="connectivity" format="ascii" type="Int32">0</DataArray>
<DataArray Name="offsets" format="ascii" type="Int32">0</DataArray>
<DataArray Name="types" format="ascii" type="UInt8">1</DataArray>
</Cells>
<PointData>
<DataArray Name="Points" NumberOfComponents="3" format="ascii" type="Float32">11.108569681945193 1.1 2 19.537126748449776 3.1762035510613464 2 20.111072680757331 1 2 21.912200398783838 2.2633271427957413 2 23.713066031737615 1 2 34.995546891732999 1 2 44.292285176897927 1 2 46.393540308437984 1.107644273788666 2 52.548040578177925 1 2 54.637919184319898 1.1 2 58.786053788689685 1.1000767849329707 2 64.851347805634646 1.1 2 67.610954005873197 1 2 81.97077452078689 1.0540696168024344 2 84.532019553554136 1 2 86.485933244628455 1 2 88.48411505881208 1 2 93.978756146426306 1.1 2 78.567071925044928 5.7821365867299201 2 82.590489176525267 7.64516552166116 2 78.252501789749246 2.1801403988674477 2 83.975356588991716 4.425213997295498 2 80.476967499102884 5.1196462084613641 2 80.206405066859588 2.0073078569188665 2 83.362802767698255 2.5160774257655825 2 82.382352440883338 5.6521772524707323 2 76.649618323279157 1 2 84.515527003653503 6.3522503739821161 2 81.749085029396227 3.7066339377924176 2 </DataArray>
<DataArray Name="forces" NumberOfComponents="3" format="ascii" type="Float32">-0.00058751483681852997 -7.9432827320668158e-05 0.0 0.0 0.0 0.0 0.0 0.0 0.0 0.0 0.0 0.0 -0.00039872588271110088 -0.00069373565690308283 0.0 -0.0020290217675661727 -0.0043890287499701751 0.0 -0.0057908863651152821 -0.00036890323162622646 0.0 0.0059414997901287032 0.00030508823464333559 0.0 0.0031698433389552557 -0.0024278088177461148 0.0 -0.009499946579513795 -0.0048927380854886455 0.0 -0.019631134305004679 9.0451650315175061e-05 0.0 0.0004945449012420715 -0.00024964945390180471 0.0 0.0 0.0 0.0 0.0068189031685531041 -0.0036840579173752623 0.0 -0.0054756746268993517 -0.050547687324675475 0.0 -0.0070786709276120519 0.0 0.0 0.051804186953731346 0.0 0.0 -0.012468876624158794 -0.0050083342420800623 0.0 -0.024105699033395336 0.040171570291571833 0.0 0.00056966924697000204 0.0054547993319306641 0.0 0.072017481564641467 0.017383671211032375 0.0 0.0067310841474344327 0.020385840194544681 0.0 0.04482131094463198 -0.013935813681019236 0.0 -0.0068189031685531041 0.0036840579173752623 0.0 0.015902438191270164 -0.015388793356668928 0.0 -0.00056966924697000204 -0.0054547993319306641 0.0 -0.007110219971002002 -0.10301584473049215 0.0 0.0 0.0 0.0 -0.06054611434359445 0.044114462961882053 0.0 </DataArray>
<DataArray Name="radii" format="ascii" type="Float32">1.1 1.1 1 1.2000000000000002 1 1 1 1.1 1 1.1 1.1 1.1 1 1 1 1 1 1.1 1 1 1 1 1 1 1 1 1 1 1 </DataArray>
</PointData>
<CellData/>
</Piece>
</UnstructuredGrid>
</VTKFile>
