<?xml version="1.0" ?>
<VTKFile byte_order="LittleEndian" type="UnstructuredGrid" version="0.1">
<UnstructuredGrid>
<Piece NumberOfCells="0" NumberOfPoints="52">
<Points>
<DataArray NumberOfComponents="3" format="ascii" type="Float32">12.559480614693918 1.1 2 21.092451889574988 5.4192515522350364 2 20.670116520221708 1 2 21.799535957026265 3.0289124268261776 2 22.661713489533344 1 2 35.480520705541238 1 2 44.511780475601348 1 2 46.595831575032548 1.1 2 51.457526106229579 1 2 53.550498652691331 1.1000221847424014 2 58.152152665636642 1.1 2 65.395805435070201 1.1 2 67.482192765022646 1 2 81.205147222103648 1.2000000000000002 2 84.687915074082312 2.9081611361937978 2 88.352264996778274 1 2 90.309400522495764 1 2 94.339736987402063 1.1 2 76.677815161038495 12.470721510158867 2 82.985239970634723 11.931829171148522 2 77.724348025479145 1.2000000000000002 2 85.913012940809324 6.0683925758149533 2 78.250808059943751 10.931699385549903 2 78.486023632371143 4.7682328173985313 2 83.758040673676291 5.0742567062454649 2 80.754385212288284 11.080290920015605 2 75.573470226388778 1 2 87.142639105457775 12.64925057236351 2 82.024621199428111 6.529436016923408 2 80.763020827720069 4.6807210989641712 2 83.471425046963404 1 2 79.399783896176103 12.804301669768103 2 74.351827587628549 3.1609137070056184 2 88.961036705189898 7.8403993268285337 2 79.619378787697656 9.0412512413425912 2 84.103026420237583 9.8112868645071263 2 88.182405604291105 10.195965688600067 2 79.448963568227157 2.6989308432332728 2 86.277198953799513 1.2000000000000002 2 82.805456026878815 14.321479787516019 2 76.715176144683156 3.3213288018419997 2 88.071610926536209 6.0624183252001318 2 76.079696037713006 10.555130718590327 2 81.976109072145363 8.8013906646959832 2 84.953434488159772 12.859668134310974 2 82.503141852870414 3.100504282413981 2 76.00193464369697 5.3495634759810242 2 79.721487968709852 6.6735553942615597 2 86.060554099865612 10.74384756287855 2 86.757090122330169 8.2699553038549514 2 77.536331509658936 6.5685646143392908 2 84.105692844891564 7.489381410360755 2 </DataArray>
</Points>
<Cells>
<DataArray Name="connectivity" format="ascii" type="Int32">0</DataArray>
<DataArray Name="offsets" format="ascii" type="Int32">0</DataArray>
<DataArray Name="types" format="ascii" type="UInt8">1</DataArray>
</Cells>
<PointData>
<DataArray Name="Points" NumberOfComponents="3" format="ascii" type="Float32">12.559480614693918 1.1 2 21.092451889574988 5.4192515522350364 2 20.670116520221708 1 2 21.799535957026265 3.0289124268261776 2 22.661713489533344 1 2 35.480520705541238 1 2 44.511780475601348 1 2 46.595831575032548 1.1 2 51.457526106229579 1 2 53.550498652691331 1.1000221847424014 2 58.152152665636642 1.1 2 65.395805435070201 1.1 2 67.482192765022646 1 2 81.205147222103648 1.2000000000000002 2 84.687915074082312 2.9081611361937978 2 88.352264996778274 1 2 90.309400522495764 1 2 94.339736987402063 1.1 2 76.677815161038495 12.470721510158867 2 82.985239970634723 11.931829171148522 2 77.724348025479145 1.2000000000000002 2 85.913012940809324 6.0683925758149533 2 78.250808059943751 10.931699385549903 2 78.486023632371143 4.7682328173985313 2 83.758040673676291 5.0742567062454649 2 80.754385212288284 11.080290920015605 2 75.573470226388778 1 2 87.142639105457775 12.64925057236351 2 82.024621199428111 6.529436016923408 2 80.763020827720069 4.6807210989641712 2 83.471425046963404 1 2 79.399783896176103 12.804301669768103 2 74.351827587628549 3.1609137070056184 2 88.961036705189898 7.8403993268285337 2 79.619378787697656 9.0412512413425912 2 84.103026420237583 9.8112868645071263 2 88.182405604291105 10.195965688600067 2 79.448963568227157 2.6989308432332728 2 86.277198953799513 1.2000000000000002 2 82.805456026878815 14.321479787516019 2 76.715176144683156 3.3213288018419997 2 88.071610926536209 6.0624183252001318 2 76.079696037713006 10.555130718590327 2 81.976109072145363 8.8013906646959832 2 84.953434488159772 12.859668134310974 2 82.503141852870414 3.100504282413981 2 76.00193464369697 5.3495634759810242 2 79.721487968709852 6.6735553942615597 2 86.060554099865612 10.74384756287855 2 86.757090122330169 8.2699553038549514 2 77.536331509658936 6.5685646143392908 2 84.105692844891564 7.489381410360755 2 </DataArray>
<DataArray Name="forces" NumberOfComponents="3" format="ascii" type="Float32">0.0017077357106911589 -0.00041174120617805578 0.0 0.0 0.0 0.0 0.001133282325021974 -0.00029032355859960715 0.0 0.00018336287282015308 4.8344998574466869e-06 0.0 0.0020796672154532797 -0.0060567617202644955 0.0 -0.0099650320544668516 -0.0039050903085262679 0.0 -0.00037990884163314337 -0.0074696985416530422 0.0 0.0037580313901862845 -0.011757647784710413 0.0 -0.0027431761359192168 -0.00040443885193969275 0.0 0.0014022639315955359 5.5365316002661412e-05 0.0 0.0032939448208141571 -0.0053847026707558431 0.0 -0.028456846430092754 -0.0050357381350385842 0.0 0.028024401525342559 -0.033851010293215772 0.0 -0.041788362081511127 -0.16586678975527369 0.0 -0.25997092882092521 0.057077437356769622 0.0 -0.13135547646245976 -0.0025888100543994285 0.0 0.15934904067083266 0.0 0.0 0.13816177984448039 -0.061475989701324521 0.0 -0.026875083951783868 0.046324983098835537 0.0 0.044663224057245439 0.018363707663350229 0.0 0.039071284624919218 -0.096724058442896221 0.0 0.058463021053303539 0.053997979593639035 0.0 0.046681535290528278 -0.039061339491619829 0.0 -0.012132660812272437 0.11710141013649776 0.0 -0.050653838487253786 -0.057177777055827564 0.0 -0.035159380157618457 -0.030653674851096008 0.0 0.0037283200531227426 -0.0067490222870659373 0.0 0.018879802700940591 0.0096622657042804306 0.0 -0.025248345650857169 -0.033807062679002811 0.0 -0.06813193497758431 0.24956483605232649 0.0 0.0 0.0 0.0 -0.0029710970632837817 0.025507614395185625 0.0 -0.021342795159032896 0.019210621049901698 0.0 0.020411924741760942 0.040514733334314136 0.0 -0.012040610382110791 0.17495959231913508 0.0 -0.0015337689388865462 -0.0021079274996573492 0.0 0.049484757606688051 0.025284820305600943 0.0 -0.032147921115836045 -0.13226380687358497 0.0 0.087245240134479957 -0.13133536583164387 0.0 0.0 0.0 0.0 -0.025940257565664315 0.020454211260260115 0.0 -0.0044537765974534925 -0.040282328782810017 0.0 -0.025006192024358977 -0.014241106473820908 0.0 0.017692504187900086 0.038686056716511048 0.0 -0.012216651641231343 0.0014909703053709125 0.0 0.21854694171871891 -0.0048600225482494375 0.0 0.057944867129490596 -0.030353973304784815 0.0 0.038864535958361535 -0.16448324654080268 0.0 -0.0014712509874440227 0.010420521800765168 0.0 -0.023561058519917123 -0.032117074686193348 0.0 -0.018499523505207796 -0.059580428236675288 0.0 -0.0074987410064084681 0.006064192006982042 0.0 </DataArray>
<DataArray Name="radii" format="ascii" type="Float32">1.1 1.1 1 1.2000000000000002 1 1 1 1.1 1 1.1 1.1 1.1 1 1.2000000000000002 1.2000000000000002 1 1 1.1 1 1.2000000000000002 1.2000000000000002 1.2000000000000002 1.2000000000000002 1.1 1.2000000000000002 1.2000000000000002 1 1.2000000000000002 1.1 1.2000000000000002 1 1 1.2000000000000002 1 1.2000000000000002 1.2000000000000002 1.2000000000000002 1.2000000000000002 1.2000000000000002 1.2000000000000002 1.2000000000000002 1 1 1.2000000000000002 1 1.2000000000000002 1 1.2000000000000002 1 1.2000000000000002 1 1.1 </DataArray>
</PointData>
<CellData/>
</Piece>
</UnstructuredGrid>
</VTKFile>
