<?xml version="1.0" ?>
<VTKFile byte_order="LittleEndian" type="UnstructuredGrid" version="0.1">
<UnstructuredGrid>
<Piece NumberOfCells="0" NumberOfPoints="124">
<Points>
<DataArray NumberOfComponents="3" format="ascii" type="Float32">1.3300000000000003 7.1158101363447912 2 8.0944692781485195 1.3300000000000003 2 3.8814081943196803 8.2172486642600422 2 9.3020979910122765 7.5999839223140846 2 12.09466974979067 7.4511783921877495 2 15.559289363306041 9.4696343148824518 2 17.154171505085532 2.8950083369963924 2 23.186730124907712 5.2085082918223886 2 26.240052145136204 1.1800000000000002 2 27.627586070608352 8.9851330456121694 2 29.953468902967831 3.224751341468413 2 33.383457587977418 5.3127972580855953 2 39.566299542934289 5.9510988332941519 2 40.988254572198613 3.9091404972305219 2 45.23437656444127 3.3238537878437451 2 48.058289480373183 5.7287721272407399 2 52.04043197684134 4.6238955517130513 2 52.797562209491716 7.0039180248216342 2 57.652249896750469 6.9549311071029232 2 62.722355430672373 1.1801549455485991 2 61.191330354593532 7.8774966313867916 2 65.114093836542679 5.716713042060773 2 69.126340790846513 1.3300000000000003 2 71.7665359232778 8.9488533698542394 2 73.032233696176476 6.5802645965980666 2 76.433625532583974 10.53946057428421 2 89.5447157994615 5.4893814186608143 2 91.218619229682702 3.5711022696491406 2 95.001337947561424 6.1815898348075136 2 96.136674770697041 8.5955672997343147 2 96.108150797638956 1.3300000000000003 2 1.3300000000000003 4.4709872851257728 2 3.4313829615560985 2.9294087305107608 2 6.4391112815370004 7.498660749757347 2 15.220747085716894 1.3300000000000003 2 14.698609339140381 6.9559314201160287 2 25.274773845655204 7.3646318291605928 2 28.390347164409469 6.4374678915640047 2 40.389485485345169 1.3300000000000003 2 41.0813113322425 7.945947185363468 2 46.943511677068827 8.1430395201455852 2 55.21109894186592 5.9066869372508659 2 56.821320075816011 3.8046807292757938 2 63.993967913207939 3.3348441046406996 2 66.458482175866536 8.5081343076622229 2 69.137666888683086 4.0189349222627531 2 70.774713702502368 11.416710816859901 2 73.395683369225651 11.033145252975741 2 91.892847478476341 10.226334421035883 2 94.53876070517596 10.737078961438581 2 96.066552271308638 3.9665531391604341 2 98.67 8.7078631275641989 2 10.57090226310976 1.1800000000000002 2 19.265242868117522 5.7821121039573846 2 27.780606753635503 3.9976651459147035 2 32.289726391610856 3.2470707362284696 2 37.450920584494384 6.9573341399272328 2 36.3785143556157 4.7963778439320857 2 47.727066706671579 3.24681211202329 2 59.194553653595094 3.1525363436803553 2 72.837462464213203 1.1800000000000002 2 91.601694206107695 1.1800000000000002 2 3.7483272264602938 5.5646902891659007 2 8.0793419974251872 5.4154840771758348 2 5.8687596943728924 3.9595026742607087 2 11.999284176253553 3.3821664356972363 2 17.677438783638234 7.8622157730243769 2 24.327050166557477 2.8019210302354698 2 30.684768163360623 8.1799859057522593 2 42.90172083128413 2.089324997069915 2 45.412118114782416 5.972084933348337 2 50.02973262266606 7.5096528654803976 2 54.208723392382623 3.4112553118805211 2 59.885421319288021 5.5500662386040016 2 62.521298420665374 5.5706542979286784 2 67.684911922723145 6.1661289474996579 2 66.628826494514058 3.3000695930842077 2 70.153958170788954 6.9120009871235393 2 74.381853618593581 8.6321111492883755 2 88.265957677125456 3.2013795724020975 2 91.202412468641796 7.5364135455619348 2 97.282872204829445 10.984426615224088 2 98.67 1.3300000000000003 2 1.3300000000000003 1.3300000000000003 2 5.4819881893294333 1.3300000000000003 2 7.2508662633386107 10.029018965852796 2 14.590220987940825 3.9102149742165158 2 16.806746540871146 5.3585222670998629 2 25.0938152048018 10.006047749762557 2 30.890843079089585 5.5357496231237233 2 37.769065507690421 1.3446036309055851 2 42.758324406607301 5.8825216532633933 2 44.004728542910719 8.2289968572697276 2 54.958190798549829 8.5499185158624957 2 55.841577622866296 1.3300000000000003 2 63.844132553218614 8.0466447609284213 2 65.911161340351967 11.088748343841395 2 68.973458629406693 9.3939052226218678 2 68.279519700714246 12.272202307166909 2 72.590918868187146 13.558068391831224 2 91.717014022667968 14.19349559587233 2 93.596519723264848 8.2417757936889604 2 97.499760266572125 6.3214283817832859 2 98.67 3.9639808014723035 2 10.585533254343883 5.4565330332564237 2 18.744972657403419 1.1800000000000002 2 28.599229465834437 1.1800000000000002 2 31.039445524980515 1.1800000000000002 2 35.106705236507977 6.8926284411509489 2 38.488549738317474 3.7446070218864147 2 50.065286422258808 3.3761921139155904 2 61.526285995925647 3.2723708677023504 2 71.520252871547328 4.8577138180360517 2 92.732518588318655 5.5519939401609308 2 9.508398173390086 3.3685008897678093 2 19.446752910015384 3.4320534928075732 2 25.655078026471607 4.9079681601214808 2 33.374147847358671 1.1800000000000002 2 36.218300699417576 8.9669715490286315 2 34.713436256480364 3.1244900729554366 2 49.237316031362958 1.1800000000000002 2 60.436937874128915 1.1800000000000002 2 71.152552739678057 2.6098415942277313 2 93.677448608233775 3.3634259237990327 2 </DataArray>
</Points>
<Cells>
<DataArray Name="connectivity" format="ascii" type="Int32">0</DataArray>
<DataArray Name="offsets" format="ascii" type="Int32">0</DataArray>
<DataArray Name="types" format="ascii" type="UInt8">1</DataArray>
</Cells>
<PointData>
<DataArray Name="Points" NumberOfComponents="3" format="ascii" type="Float32">1.3300000000000003 7.1158101363447912 2 8.0944692781485195 1.3300000000000003 2 3.8814081943196803 8.2172486642600422 2 9.3020979910122765 7.5999839223140846 2 12.09466974979067 7.4511783921877495 2 15.559289363306041 9.4696343148824518 2 17.154171505085532 2.8950083369963924 2 23.186730124907712 5.2085082918223886 2 26.240052145136204 1.1800000000000002 2 27.627586070608352 8.9851330456121694 2 29.953468902967831 3.224751341468413 2 33.383457587977418 5.3127972580855953 2 39.566299542934289 5.9510988332941519 2 40.988254572198613 3.9091404972305219 2 45.23437656444127 3.3238537878437451 2 48.058289480373183 5.7287721272407399 2 52.04043197684134 4.6238955517130513 2 52.797562209491716 7.0039180248216342 2 57.652249896750469 6.9549311071029232 2 62.722355430672373 1.1801549455485991 2 61.191330354593532 7.8774966313867916 2 65.114093836542679 5.716713042060773 2 69.126340790846513 1.3300000000000003 2 71.7665359232778 8.9488533698542394 2 73.032233696176476 6.5802645965980666 2 76.433625532583974 10.53946057428421 2 89.5447157994615 5.4893814186608143 2 91.218619229682702 3.5711022696491406 2 95.001337947561424 6.1815898348075136 2 96.136674770697041 8.5955672997343147 2 96.108150797638956 1.3300000000000003 2 1.3300000000000003 4.4709872851257728 2 3.4313829615560985 2.9294087305107608 2 6.4391112815370004 7.498660749757347 2 15.220747085716894 1.3300000000000003 2 14.698609339140381 6.9559314201160287 2 25.274773845655204 7.3646318291605928 2 28.390347164409469 6.4374678915640047 2 40.389485485345169 1.3300000000000003 2 41.0813113322425 7.945947185363468 2 46.943511677068827 8.1430395201455852 2 55.21109894186592 5.9066869372508659 2 56.821320075816011 3.8046807292757938 2 63.993967913207939 3.3348441046406996 2 66.458482175866536 8.5081343076622229 2 69.137666888683086 4.0189349222627531 2 70.774713702502368 11.416710816859901 2 73.395683369225651 11.033145252975741 2 91.892847478476341 10.226334421035883 2 94.53876070517596 10.737078961438581 2 96.066552271308638 3.9665531391604341 2 98.67 8.7078631275641989 2 10.57090226310976 1.1800000000000002 2 19.265242868117522 5.7821121039573846 2 27.780606753635503 3.9976651459147035 2 32.289726391610856 3.2470707362284696 2 37.450920584494384 6.9573341399272328 2 36.3785143556157 4.7963778439320857 2 47.727066706671579 3.24681211202329 2 59.194553653595094 3.1525363436803553 2 72.837462464213203 1.1800000000000002 2 91.601694206107695 1.1800000000000002 2 3.7483272264602938 5.5646902891659007 2 8.0793419974251872 5.4154840771758348 2 5.8687596943728924 3.9595026742607087 2 11.999284176253553 3.3821664356972363 2 17.677438783638234 7.8622157730243769 2 24.327050166557477 2.8019210302354698 2 30.684768163360623 8.1799859057522593 2 42.90172083128413 2.089324997069915 2 45.412118114782416 5.972084933348337 2 50.02973262266606 7.5096528654803976 2 54.208723392382623 3.4112553118805211 2 59.885421319288021 5.5500662386040016 2 62.521298420665374 5.5706542979286784 2 67.684911922723145 6.1661289474996579 2 66.628826494514058 3.3000695930842077 2 70.153958170788954 6.9120009871235393 2 74.381853618593581 8.6321111492883755 2 88.265957677125456 3.2013795724020975 2 91.202412468641796 7.5364135455619348 2 97.282872204829445 10.984426615224088 2 98.67 1.3300000000000003 2 1.3300000000000003 1.3300000000000003 2 5.4819881893294333 1.3300000000000003 2 7.2508662633386107 10.029018965852796 2 14.590220987940825 3.9102149742165158 2 16.806746540871146 5.3585222670998629 2 25.0938152048018 10.006047749762557 2 30.890843079089585 5.5357496231237233 2 37.769065507690421 1.3446036309055851 2 42.758324406607301 5.8825216532633933 2 44.004728542910719 8.2289968572697276 2 54.958190798549829 8.5499185158624957 2 55.841577622866296 1.3300000000000003 2 63.844132553218614 8.0466447609284213 2 65.911161340351967 11.088748343841395 2 68.973458629406693 9.3939052226218678 2 68.279519700714246 12.272202307166909 2 72.590918868187146 13.558068391831224 2 91.717014022667968 14.19349559587233 2 93.596519723264848 8.2417757936889604 2 97.499760266572125 6.3214283817832859 2 98.67 3.9639808014723035 2 10.585533254343883 5.4565330332564237 2 18.744972657403419 1.1800000000000002 2 28.599229465834437 1.1800000000000002 2 31.039445524980515 1.1800000000000002 2 35.106705236507977 6.8926284411509489 2 38.488549738317474 3.7446070218864147 2 50.065286422258808 3.3761921139155904 2 61.526285995925647 3.2723708677023504 2 71.520252871547328 4.8577138180360517 2 92.732518588318655 5.5519939401609308 2 9.508398173390086 3.3685008897678093 2 19.446752910015384 3.4320534928075732 2 25.655078026471607 4.9079681601214808 2 33.374147847358671 1.1800000000000002 2 36.218300699417576 8.9669715490286315 2 34.713436256480364 3.1244900729554366 2 49.237316031362958 1.1800000000000002 2 60.436937874128915 1.1800000000000002 2 71.152552739678057 2.6098415942277313 2 93.677448608233775 3.3634259237990327 2 </DataArray>
<DataArray Name="forces" NumberOfComponents="3" format="ascii" type="Float32">0.0 0.01546994007154856 0.0 0.0020418671086349545 -0.022623221087709821 0.0 -0.0030644965975159541 0.0050896425611344056 0.0 0.0033237461708921301 0.0059403585650002868 0.0 -0.004062589810954963 0.0090302013822798326 0.0 0.00020754260141040153 0.0035937311694062501 0.0 0.0015126588238285003 0.0064913942007145432 0.0 -0.0084454651635140592 0.00034211861486098004 0.0 0.00085245914678190268 -0.0014081068184773229 0.0 -0.00017109136534316873 0.00057106481024470654 0.0 0.00021900101591475554 0.0063078782228613087 0.0 0.00093656707032335404 0.0037829550331781956 0.0 0.0024316318366226896 0.0041073961392527631 0.0 -0.003545286829901146 0.0062999057161910108 0.0 -0.0017969468770947978 0.0026259732017347368 0.0 0.0009152445372787605 0.0026425741997729646 0.0 0.00093607516236645857 0.010461672611971937 0.0 0.0040646928960678822 0.012789627585607201 0.0 0.0016069367151508038 0.0086636117625660918 0.0 0.0040745718698004668 0.00050611266466682936 0.0 -0.016240072603654544 0.011430166214451162 0.0 -0.13140505825172991 -0.01680884675928818 0.0 -0.063139754326260011 -0.083198620959312089 0.0 0.092642518832951992 0.11804797276570989 0.0 -0.0048449173501915743 0.0047258501296387773 0.0 -0.0011803657652664507 -0.0014362599149193081 0.0 -0.014312878013103283 -0.073427780668111231 0.0 -0.013382519885545133 0.019248077511394741 0.0 0.083343657972945392 -0.074288953069578195 0.0 0.16952648483134791 0.0065751985149364693 0.0 -0.00133743057834948 -0.024685289259426334 0.0 -0.049986251186985756 0.014513569387783507 0.0 -0.0017163294314363753 0.0053152732891613222 0.0 -0.003059392802047727 0.0034836384214644526 0.0 0.0055647565311854877 -0.016081580767248371 0.0 -0.0038214136369054894 0.0045793980725406308 0.0 -0.002936429974241009 0.011938334833358056 0.0 -0.0017372691024496302 0.00011908026099756018 0.0 -0.0013426690515712589 -0.024917998227342711 0.0 0.0025475952366966234 0.0050666930595273385 0.0 0.0012536463424348736 0.0030736721737856195 0.0 -0.026384184765990325 0.018671350480664317 0.0 0.023339195202884234 -0.010417573948583387 0.0 -0.049513936958785205 0.01138662046581977 0.0 -0.03298721767531821 0.065167239069064437 0.0 -0.15595024600871471 0.080042525098059536 0.0 0.054136471429113354 -0.018560154361697251 0.0 -0.0777963580714921 -0.14796279762208445 0.0 0.049413460287162231 -0.041776424680921506 0.0 -0.010796121438607011 0.043641684249599633 0.0 -0.031322058398661159 0.03603504432792335 0.0 0.072221868357489227 0.0031662953455915887 0.0 0.0036752936583361734 -0.00086945533141253369 0.0 0.00456354421734044 0.00081826800367880599 0.0 -0.0067869257683906004 -0.00072269199834416875 0.0 0.0011017526128227362 0.0033872784842894389 0.0 -0.0016837239328581393 0.0069043635488523405 0.0 -0.0021613181974697261 0.0014682279060512385 0.0 0.0028604268185636536 0.0019881943523403387 0.0 -0.04463238771485712 0.0065745420033843961 0.0 -0.053278348592607494 -0.045382642440500512 0.0 -0.0060453113139572051 -0.083586839884927475 0.0 0.0055291954080335555 0.0044269559889702171 0.0 0.0017340494608124243 0.0059354176281925667 0.0 0.0027996802913516504 0.00014598868927353289 0.0 0.0023941775489149039 0.00034096298749084473 0.0 0.0039068004672394626 0.0082965425308815528 0.0 0.0021993165938464856 0.0026313258403525414 0.0 -0.00061706531679262759 0.0079409459750437103 0.0 0.0073342578331573316 0.0028830074067103858 0.0 0.0017674851174658748 0.0045823322885345779 0.0 0.0027125424780057661 0.0024511091621691131 0.0 -0.027658588400681069 0.0011556345324636331 0.0 -0.04704074992176302 0.0097665120311520477 0.0 0.067002354820130075 -0.0034892992861385551 0.0 0.17075146416541898 -0.040302451292532383 0.0 0.055282158072686369 0.011852153743613311 0.0 -0.11318875668830364 -0.085615739466383678 0.0 -0.080283072476301953 0.077487887999235477 0.0 0.010022293216060237 0.013922409509369727 0.0 0.21866732475467995 0.056994175908251371 0.0 0.0 0.0 0.0 0.098560249781020293 -0.017237454895116411 0.0 -0.015722326501538729 -0.011951444587386877 0.0 -0.0010338498897973108 -0.039624756087750956 0.0 0.00083182322542331866 0.0025970032261852394 0.0 0.0043366273694421722 0.00013300949776797518 0.0 0.001158094859265801 0.0085400607161365237 0.0 -0.00085855379668332995 0.01248743685725061 0.0 0.0013859029993829953 0.0073790071513181992 0.0 0.0020436148038770977 0.002376823968294502 0.0 -0.00047963533976355926 0.002472291224042134 0.0 0.0016452099538827921 0.0030986294817801686 0.0 0.0 0.0 0.0 -0.0023235462257402487 -0.0078362313238042498 0.0 0.0094158041442144302 0.00061394214487342502 0.0 -0.0002583933137313439 0.00042251251104841289 0.0 0.0 0.0 0.0 -0.053984699681477059 0.018635115842950831 0.0 -0.022558655567060774 0.061404901227383998 0.0 0.0029531257754550817 0.0055728536824084535 0.0 -0.26926829091991256 0.040411523421297606 0.0 -0.023099859333827494 0.046361312899978684 0.0 0.089182565023245092 -0.02868460378819912 0.0 0.0033045035940263119 0.0022883318236135231 0.0 -0.0018727067643841348 -0.0157707225694276 0.0 0.00080953953379836463 0.0 0.0 -0.0044919628679537492 -0.040415056430421446 0.0 -0.0003533615873462263 0.0097068284029344365 0.0 -0.00027361871941569671 0.0027173568595525886 0.0 -0.00028139500092749705 -0.00092238948060701688 0.0 0.030998416368486621 0.00040918379937694357 0.0 0.029188303044101367 0.024149243232185549 0.0 -0.023195961129842946 -0.00044457028195107016 0.0 0.0003642446381983697 0.0034583875730105733 0.0 0.001529252138993944 -0.00015715121243143108 0.0 -0.0070235624736217604 0.0091733342707966403 0.0 -0.0021802470207057459 -0.019781157837257025 0.0 0.001920479992340399 0.0071493775407387378 0.0 -0.00025975742207306178 -0.0002606460516766293 0.0 -0.0013889071661554913 -0.008866816431745448 0.0 -0.011930661116285709 -0.0349217204274666 0.0 0.18544289389931573 -0.027842489793297502 0.0 0.019688149351888569 0.0018167480219576423 0.0 </DataArray>
<DataArray Name="radii" format="ascii" type="Float32">1.3300000000000003 1.3300000000000003 1.3300000000000003 1.1800000000000002 1.3300000000000003 1.3300000000000003 1.1800000000000002 1.3300000000000003 1.1800000000000002 1.3300000000000003 1.1800000000000002 1.1800000000000002 1.1800000000000002 1.3300000000000003 1.3300000000000003 1.3300000000000003 1.1800000000000002 1.3300000000000003 1.3300000000000003 1.1800000000000002 1.3300000000000003 1.3300000000000003 1.3300000000000003 1.3300000000000003 1.1800000000000002 1.3300000000000003 1.3300000000000003 1.3300000000000003 1.1800000000000002 1.3300000000000003 1.3300000000000003 1.3300000000000003 1.3300000000000003 1.3300000000000003 1.3300000000000003 1.3300000000000003 1.3300000000000003 1.3300000000000003 1.3300000000000003 1.3300000000000003 1.3300000000000003 1.3300000000000003 1.3300000000000003 1.3300000000000003 1.3300000000000003 1.3300000000000003 1.3300000000000003 1.3300000000000003 1.3300000000000003 1.3300000000000003 1.3300000000000003 1.3300000000000003 1.1800000000000002 1.1800000000000002 1.1800000000000002 1.1800000000000002 1.1800000000000002 1.1800000000000002 1.1800000000000002 1.1800000000000002 1.1800000000000002 1.1800000000000002 1.3300000000000003 1.3300000000000003 1.3300000000000003 1.3300000000000003 1.3300000000000003 1.3300000000000003 1.3300000000000003 1.3300000000000003 1.3300000000000003 1.3300000000000003 1.3300000000000003 1.3300000000000003 1.3300000000000003 1.3300000000000003 1.3300000000000003 1.3300000000000003 1.3300000000000003 1.3300000000000003 1.3300000000000003 1.3300000000000003 1.3300000000000003 1.3300000000000003 1.3300000000000003 1.3300000000000003 1.3300000000000003 1.3300000000000003 1.3300000000000003 1.3300000000000003 1.3300000000000003 1.3300000000000003 1.3300000000000003 1.3300000000000003 1.3300000000000003 1.3300000000000003 1.3300000000000003 1.3300000000000003 1.3300000000000003 1.3300000000000003 1.3300000000000003 1.3300000000000003 1.3300000000000003 1.3300000000000003 1.1800000000000002 1.1800000000000002 1.1800000000000002 1.1800000000000002 1.1800000000000002 1.1800000000000002 1.1800000000000002 1.1800000000000002 1.1800000000000002 1.1800000000000002 1.1800000000000002 1.1800000000000002 1.1800000000000002 1.1800000000000002 1.1800000000000002 1.1800000000000002 1.1800000000000002 1.1800000000000002 1.1800000000000002 1.1800000000000002 </DataArray>
</PointData>
<CellData/>
</Piece>
</UnstructuredGrid>
</VTKFile>
