<?xml version="1.0" ?>
<VTKFile byte_order="LittleEndian" type="UnstructuredGrid" version="0.1">
<UnstructuredGrid>
<Piece NumberOfCells="0" NumberOfPoints="31">
<Points>
<DataArray NumberOfComponents="3" format="ascii" type="Float32">1.4400000000000002 1.4400000000000002 2 4.3162130176669216 1.4400000000000002 2 6.1283180087722098 3.6713118671248095 2 7.3889066122838818 1.2704663486737198 2 12.267918598857522 1.4400000000000002 2 14.559660512161146 3.17284191055204 2 16.491216905349141 1.2700000000000002 2 25.724802540927342 2.7751907923910895 2 27.982446305910802 1.2700000000000002 2 29.540825165772862 3.4991482289698062 2 31.043531012211577 1.2700000000000002 2 33.568915115822222 1.8174908371666509 2 37.973317026817149 1.2898060403939886 2 40.610951535132436 1.4400000000000002 2 42.970702738831491 3.1526350156262368 2 47.940277875657607 2.987980125981371 2 50.037091694019352 1.2706256441998844 2 53.898889921147905 2.8380825255228803 2 57.764678971526074 2.6480308258936649 2 62.141388182555083 1.2776673040198883 2 66.220961123212945 2.9607506461609741 2 69.3194350807793 2.8021991437262734 2 71.857629718786498 1.4400000000000002 2 74.301996928175569 2.9600818605410657 2 76.421166161998002 1.2700000000000002 2 77.165066152483931 3.8709664928655001 2 86.458291816638493 3.0864183485500383 2 89.276735155589492 3.0840492239003989 2 91.363699372824058 1.2700000000000002 2 95.899538617764762 2.3983804121194865 2 98.56 1.4400000000000002 2 </DataArray>
</Points>
<Cells>
<DataArray Name="connectivity" format="ascii" type="Int32">0</DataArray>
<DataArray Name="offsets" format="ascii" type="Int32">0</DataArray>
<DataArray Name="types" format="ascii" type="UInt8">1</DataArray>
</Cells>
<PointData>
<DataArray Name="Points" NumberOfComponents="3" format="ascii" type="Float32">1.4400000000000002 1.4400000000000002 2 4.3162130176669216 1.4400000000000002 2 6.1283180087722098 3.6713118671248095 2 7.3889066122838818 1.2704663486737198 2 12.267918598857522 1.4400000000000002 2 14.559660512161146 3.17284191055204 2 16.491216905349141 1.2700000000000002 2 25.724802540927342 2.7751907923910895 2 27.982446305910802 1.2700000000000002 2 29.540825165772862 3.4991482289698062 2 31.043531012211577 1.2700000000000002 2 33.568915115822222 1.8174908371666509 2 37.973317026817149 1.2898060403939886 2 40.610951535132436 1.4400000000000002 2 42.970702738831491 3.1526350156262368 2 47.940277875657607 2.987980125981371 2 50.037091694019352 1.2706256441998844 2 53.898889921147905 2.8380825255228803 2 57.764678971526074 2.6480308258936649 2 62.141388182555083 1.2776673040198883 2 66.220961123212945 2.9607506461609741 2 69.3194350807793 2.8021991437262734 2 71.857629718786498 1.4400000000000002 2 74.301996928175569 2.9600818605410657 2 76.421166161998002 1.2700000000000002 2 77.165066152483931 3.8709664928655001 2 86.458291816638493 3.0864183485500383 2 89.276735155589492 3.0840492239003989 2 91.363699372824058 1.2700000000000002 2 95.899538617764762 2.3983804121194865 2 98.56 1.4400000000000002 2 </DataArray>
<DataArray Name="forces" NumberOfComponents="3" format="ascii" type="Float32">-0.012762918851420668 0.0 0.0 0.0088076651071311764 -0.0048462451521248152 0.0 0.0039552537442894917 0.0048462451521248152 0.0 -0.0063459628649201122 0.00045760605958877282 0.0 0.0077782858855161225 -0.00022599752827483308 0.0 -0.00077215167909309946 0.0043710712470899447 0.0 0.0023708087994914117 -0.0030664757622897634 0.0 0.0020998743973923888 0.0022266866883827062 0.0 0.0 0.0 0.0 0.0 0.0 0.0 -0.043392606034681404 -0.0095749691623989303 0.0 0.043392606034681404 0.0095749691623989303 0.0 0.098125305244007435 0.012620123518168188 0.0 -0.038289955377387511 -0.028163947799702389 0.0 0.038289955377387511 0.028163947799702389 0.0 0.0013021221552837103 0.0014462136722089816 0.0 -0.0051130022935032722 0.00061391528087776704 0.0 -0.00038657301494792303 0.00036275153055037894 0.0 0.001063159490841918 0.001675537249778705 0.0 0.014860246860782283 0.0011170085201225588 0.0 0.0046593179131196828 0.0052248858404691087 0.0 -0.0015106253995873222 0.0017288842295874116 0.0 0.00088200413991681341 -0.0018522702662037934 0.0 -0.00062740831511898807 0.002189957654817071 0.0 0.0012767743589945384 -0.0032748585946068215 0.0 -0.026121199192704048 0.0050883796502324248 0.0 0.013974681840672338 0.02302929247000865 0.0 -0.064798736052085776 0.057972292999092324 0.0 0.064798736052085776 -0.057972292999092324 0.0 0.05812570789594227 0.044093723548243632 0.0 0.010431805003826964 -0.0035036515017613378 0.0 </DataArray>
<DataArray Name="radii" format="ascii" type="Float32">1.4400000000000002 1.4400000000000002 1.4400000000000002 1.2700000000000002 1.4400000000000002 1.4400000000000002 1.2700000000000002 1.4400000000000002 1.2700000000000002 1.4400000000000002 1.2700000000000002 1.2700000000000002 1.2700000000000002 1.4400000000000002 1.4400000000000002 1.4400000000000002 1.2700000000000002 1.4400000000000002 1.4400000000000002 1.2700000000000002 1.4400000000000002 1.4400000000000002 1.4400000000000002 1.4400000000000002 1.2700000000000002 1.4400000000000002 1.4400000000000002 1.4400000000000002 1.2700000000000002 1.4400000000000002 1.4400000000000002 </DataArray>
</PointData>
<CellData/>
</Piece>
</UnstructuredGrid>
</VTKFile>
