<?xml version="1.0" ?>
<VTKFile byte_order="LittleEndian" type="UnstructuredGrid" version="0.1">
<UnstructuredGrid>
<Piece NumberOfCells="0" NumberOfPoints="62">
<Points>
<DataArray NumberOfComponents="3" format="ascii" type="Float32">2.4167282249066555 3.7578844769473978 2 6.5774903701101586 1.4030813213741824 2 5.4941822620630081 3.9134553432984296 2 8.0090980835281549 3.4486398151490456 2 11.695254733180601 3.4927852958022525 2 15.641262546575014 6.2021812485751999 2 16.155703416388299 1.1800000000000002 2 24.597340792304845 3.1381351028896907 2 28.045962451945176 1.1800000000000002 2 28.882557923191563 6.1184834634569745 2 30.40596756763383 1.1800000000000002 2 33.449481636518286 3.6023474128821302 2 38.082239832393029 3.27450427891899 2 42.284639993957093 1.815736443648936 2 44.356594754051848 3.4838525019969313 2 48.447555057403562 3.6338493929794158 2 50.889347366339784 2.5608523908366045 2 53.31414341408091 3.2160935047160999 2 58.973358249374428 3.5380777499417539 2 63.075164717224872 2.0738816825467348 2 64.081939946731538 4.3723288424880833 2 69.038844362984221 2.5757630076440057 2 71.390750994360971 1.3300000000000003 2 73.833393350766215 4.984041985900598 2 75.511102022913391 3.1171675570278645 2 77.293947569198423 4.9165008725760986 2 86.971655133381475 3.3290945160298362 2 89.630197397368278 3.2423006698523387 2 92.419714413300284 3.18219959944624 2 94.867617848195962 3.732043864081537 2 98.67 1.3300000000000003 2 1.3300000000000003 1.3300000000000003 2 3.8899250849022287 1.3300000000000003 2 7.0183028418796374 6.108945376890345 2 13.629094768949148 1.330811859352844 2 15.046167477656825 3.6158415161471402 2 25.927069261211457 5.5612992343187697 2 29.599801660463971 3.5570129800334827 2 39.669369054401386 1.3300000000000003 2 41.954607377334092 4.6855817758294886 2 46.339828265753212 5.2565289072293195 2 55.445204839883154 4.8159458924289549 2 56.560715577387427 2.4014465986303914 2 66.673891661511107 3.7673519519841876 2 68.991895502228161 5.2302798241501272 2 71.365982625514533 3.9903065833359088 2 72.045425037936369 6.9535899985953202 2 75.6123193964265 6.9718970068511483 2 87.180153411438724 6.2886112720011642 2 89.808986899385658 5.8966204414040462 2 96.010108637695538 1.3300000000000003 2 98.670000000000002 3.9900002114195514 2 8.981969519175065 1.1831199021892675 2 18.377563897179844 1.8391058748294689 2 27.099089447985687 3.3417027662084853 2 32.760163916149892 1.3452580597736508 2 35.137985197089996 5.3013858649323957 2 35.736170999688312 3.0184528229773648 2 48.975491144353789 1.1800000000000002 2 60.890861065720138 1.1800000000000002 2 73.879033714945521 1.2259083040792715 2 91.172033625091004 1.1800000000000002 2 </DataArray>
</Points>
<Cells>
<DataArray Name="connectivity" format="ascii" type="Int32">0</DataArray>
<DataArray Name="offsets" format="ascii" type="Int32">0</DataArray>
<DataArray Name="types" format="ascii" type="UInt8">1</DataArray>
</Cells>
<PointData>
<DataArray Name="Points" NumberOfComponents="3" format="ascii" type="Float32">2.4167282249066555 3.7578844769473978 2 6.5774903701101586 1.4030813213741824 2 5.4941822620630081 3.9134553432984296 2 8.0090980835281549 3.4486398151490456 2 11.695254733180601 3.4927852958022525 2 15.641262546575014 6.2021812485751999 2 16.155703416388299 1.1800000000000002 2 24.597340792304845 3.1381351028896907 2 28.045962451945176 1.1800000000000002 2 28.882557923191563 6.1184834634569745 2 30.40596756763383 1.1800000000000002 2 33.449481636518286 3.6023474128821302 2 38.082239832393029 3.27450427891899 2 42.284639993957093 1.815736443648936 2 44.356594754051848 3.4838525019969313 2 48.447555057403562 3.6338493929794158 2 50.889347366339784 2.5608523908366045 2 53.31414341408091 3.2160935047160999 2 58.973358249374428 3.5380777499417539 2 63.075164717224872 2.0738816825467348 2 64.081939946731538 4.3723288424880833 2 69.038844362984221 2.5757630076440057 2 71.390750994360971 1.3300000000000003 2 73.833393350766215 4.984041985900598 2 75.511102022913391 3.1171675570278645 2 77.293947569198423 4.9165008725760986 2 86.971655133381475 3.3290945160298362 2 89.630197397368278 3.2423006698523387 2 92.419714413300284 3.18219959944624 2 94.867617848195962 3.732043864081537 2 98.67 1.3300000000000003 2 1.3300000000000003 1.3300000000000003 2 3.8899250849022287 1.3300000000000003 2 7.0183028418796374 6.108945376890345 2 13.629094768949148 1.330811859352844 2 15.046167477656825 3.6158415161471402 2 25.927069261211457 5.5612992343187697 2 29.599801660463971 3.5570129800334827 2 39.669369054401386 1.3300000000000003 2 41.954607377334092 4.6855817758294886 2 46.339828265753212 5.2565289072293195 2 55.445204839883154 4.8159458924289549 2 56.560715577387427 2.4014465986303914 2 66.673891661511107 3.7673519519841876 2 68.991895502228161 5.2302798241501272 2 71.365982625514533 3.9903065833359088 2 72.045425037936369 6.9535899985953202 2 75.6123193964265 6.9718970068511483 2 87.180153411438724 6.2886112720011642 2 89.808986899385658 5.8966204414040462 2 96.010108637695538 1.3300000000000003 2 98.670000000000002 3.9900002114195514 2 8.981969519175065 1.1831199021892675 2 18.377563897179844 1.8391058748294689 2 27.099089447985687 3.3417027662084853 2 32.760163916149892 1.3452580597736508 2 35.137985197089996 5.3013858649323957 2 35.736170999688312 3.0184528229773648 2 48.975491144353789 1.1800000000000002 2 60.890861065720138 1.1800000000000002 2 73.879033714945521 1.2259083040792715 2 91.172033625091004 1.1800000000000002 2 </DataArray>
<DataArray Name="forces" NumberOfComponents="3" format="ascii" type="Float32">0.0 0.0 0.0 0.17126940185672307 0.004837012548369362 0.0 0.0 0.0 0.0 0.0 0.0 0.0 0.0 0.0 0.0 0.0 0.0 0.0 0.093132700226637388 -0.0060987267464657369 0.0 -0.0001127952145007766 2.3550467047182894e-06 0.0 -1.6898402756204689e-05 0.0 0.0 0.0 0.0 0.0 2.0804999928198618e-05 -1.1518934290806211e-05 0.0 8.9556631110533377e-07 2.9324862398569064e-06 0.0 1.3224532824988143e-05 2.6261909454702168e-06 0.0 -5.2443679108540557e-06 -5.4271641553594787e-07 0.0 2.1231135295646985e-06 1.7093058216310685e-06 0.0 1.1084200878115429e-06 -7.7144752217147838e-07 0.0 5.287562266261104e-06 3.8149964684409283e-06 0.0 -2.5559610032101111e-05 4.5277844673038837e-05 0.0 0.0 0.0 0.0 0.0013250324797402454 0.00054242121613542061 0.0 -0.0093931778147241275 0.0021924233672637023 0.0 -0.028268280221251243 0.015073364434429647 0.0 0.028269263271396918 -0.015391383350327822 0.0 0.0002723640030720747 -0.00019547228872224173 0.0 -8.9151751585146266e-05 0.00036370483196700078 0.0 -0.0039298047081582875 0.01647139999208291 0.0 0.0012548623788479994 -0.000994763830972123 0.0 -0.00013397107340130658 -0.0019889426668381338 0.0 0.00181063900264725 0.0029080635761107886 0.0 -0.00012274865707000038 0.00025808753823251211 0.0 5.0607865337060076e-05 0.0 0.0 -0.00018003047101933234 0.0 0.0 -0.17108937138570374 -0.004837012548369362 0.0 0.0 0.0 0.0 -0.10400827856906028 -0.012166365084733404 0.0 0.010875578342422896 0.018265091831199141 0.0 -1.7890308735634645e-06 3.3883119684118575e-06 0.0 -3.9065971719939271e-06 1.1518934290806211e-05 0.0 8.8655043538078705e-07 -1.0861698639044187e-06 0.0 0.0 0.0 0.0 -1.1295371045752737e-06 8.6959884053762169e-07 0.0 0.0 0.0 0.0 -0.0006135633275162122 0.00038919016217263289 0.0 0.0093931778147241275 -0.0021924233672637023 0.0 0.0 0.0 0.0 -7.0482922693334207e-05 0.00029001798796945565 0.0 -0.00020286413052441661 0.00022347321665096122 0.0 0.0 0.0 0.0 0.0039903025242199958 0.0023322189126094204 0.0 0.00013397107340130658 0.0019889426668381338 0.0 9.9387343081216311e-05 -0.00025549698719091714 0.0 0.0 0.0 0.0 -0.1426530344815915 0.005343437818072911 0.0 -0.045372876017148109 -0.0067923938066439035 0.0 0.00011976098781311339 6.2114987160584399e-06 0.0 -2.4025973666569376e-05 7.7765916829021921e-07 0.0 -4.891557987100869e-06 1.866801435368828e-05 0.0 -9.2195252732680623e-06 -2.020803543525408e-05 0.0 -5.2664452494973729e-06 -3.9131477868070718e-06 0.0 -0.0013250324797402454 -0.00054242121613542061 0.0 -0.040961509845111543 0.0043019118392266424 0.0 -0.00181063900264725 -0.0029080635761107886 0.0 </DataArray>
<DataArray Name="radii" format="ascii" type="Float32">1.3300000000000003 1.3300000000000003 1.3300000000000003 1.1800000000000002 1.3300000000000003 1.3300000000000003 1.1800000000000002 1.3300000000000003 1.1800000000000002 1.3300000000000003 1.1800000000000002 1.1800000000000002 1.1800000000000002 1.3300000000000003 1.3300000000000003 1.3300000000000003 1.1800000000000002 1.3300000000000003 1.3300000000000003 1.1800000000000002 1.3300000000000003 1.3300000000000003 1.3300000000000003 1.3300000000000003 1.1800000000000002 1.3300000000000003 1.3300000000000003 1.3300000000000003 1.1800000000000002 1.3300000000000003 1.3300000000000003 1.3300000000000003 1.3300000000000003 1.3300000000000003 1.3300000000000003 1.3300000000000003 1.3300000000000003 1.3300000000000003 1.3300000000000003 1.3300000000000003 1.3300000000000003 1.3300000000000003 1.3300000000000003 1.3300000000000003 1.3300000000000003 1.3300000000000003 1.3300000000000003 1.3300000000000003 1.3300000000000003 1.3300000000000003 1.3300000000000003 1.3300000000000003 1.1800000000000002 1.1800000000000002 1.1800000000000002 1.1800000000000002 1.1800000000000002 1.1800000000000002 1.1800000000000002 1.1800000000000002 1.1800000000000002 1.1800000000000002 </DataArray>
</PointData>
<CellData/>
</Piece>
</UnstructuredGrid>
</VTKFile>
