<?xml version="1.0" ?>
<VTKFile byte_order="LittleEndian" type="UnstructuredGrid" version="0.1">
<UnstructuredGrid>
<Piece NumberOfCells="0" NumberOfPoints="52">
<Points>
<DataArray NumberOfComponents="3" format="ascii" type="Float32">2.1198482856537835 3.126233049145474 2 5.4805724056362646 1.5263607782476269 2 6.2103704491615517 3.6943573354647077 2 8.0955930885257121 1.434323056529635 2 11.577814409355087 3.0792621146557857 2 15.237367016487038 4.7086113559308194 2 16.645240241174253 1.4200000000000004 2 25.277284066006608 2.5770761290536965 2 27.538550477081213 1.4200000000000004 2 29.087490594556247 5.1585428333387533 2 31.567261009589298 1.4200000000000004 2 33.933228859446231 2.9910418882866656 2 37.427925394981095 2.1695578033811342 2 41.831954758581638 1.9262688218918607 2 43.74812823743892 3.0866288234895705 2 48.107720449556268 2.9545381148120193 2 50.13188685663787 1.4201285794322556 2 53.514428583106053 2.8700551529162928 2 58.692014901374186 3.3445375661439223 2 62.031654249371329 1.4258447011102189 2 65.047043751896737 3.2590746886881394 2 69.515809017006333 2.3530244544535108 2 71.384929673869621 1.12 2 74.465189925744255 3.5762025720483614 2 75.815149384361902 1.4200000000000004 2 77.265567177317905 3.6081911305664724 2 86.673659523876154 2.6958366071902136 2 89.300712709669298 2.6405868496845959 2 91.528253792910107 1.4200036510562994 2 95.078282992844734 3.0571941938342118 2 98.879999999999995 1.12 2 1.12 1.12 2 3.3600061801806405 1.12 2 6.8833689034258949 5.8237422293265677 2 12.792274894350925 1.1203627404669609 2 14.410234043402552 2.6268140974350151 2 26.39773271149172 4.5170288881522618 2 29.552882322561778 2.9673250368782753 2 39.741177123307544 1.12 2 42.085404204264009 4.6029730757798069 2 46.225880153845516 4.1709485402929216 2 55.284018981759225 4.24397310811288 2 56.973964923556018 1.9063746849384027 2 67.287678499694209 3.1738706156746987 2 69.066383514207331 4.5477014489657357 2 72.259259990702446 3.1829107720244041 2 73.097729592843933 5.3540864659723448 2 75.840317660354188 5.3435783877520802 2 86.090591406217058 4.8618132985396745 2 88.333510690681436 4.6610709991146608 2 96.669155254976687 1.4802298657406807 2 98.879999999999995 3.3614035363109234 2 </DataArray>
</Points>
<Cells>
<DataArray Name="connectivity" format="ascii" type="Int32">0</DataArray>
<DataArray Name="offsets" format="ascii" type="Int32">0</DataArray>
<DataArray Name="types" format="ascii" type="UInt8">1</DataArray>
</Cells>
<PointData>
<DataArray Name="Points" NumberOfComponents="3" format="ascii" type="Float32">2.1198482856537835 3.126233049145474 2 5.4805724056362646 1.5263607782476269 2 6.2103704491615517 3.6943573354647077 2 8.0955930885257121 1.434323056529635 2 11.577814409355087 3.0792621146557857 2 15.237367016487038 4.7086113559308194 2 16.645240241174253 1.4200000000000004 2 25.277284066006608 2.5770761290536965 2 27.538550477081213 1.4200000000000004 2 29.087490594556247 5.1585428333387533 2 31.567261009589298 1.4200000000000004 2 33.933228859446231 2.9910418882866656 2 37.427925394981095 2.1695578033811342 2 41.831954758581638 1.9262688218918607 2 43.74812823743892 3.0866288234895705 2 48.107720449556268 2.9545381148120193 2 50.13188685663787 1.4201285794322556 2 53.514428583106053 2.8700551529162928 2 58.692014901374186 3.3445375661439223 2 62.031654249371329 1.4258447011102189 2 65.047043751896737 3.2590746886881394 2 69.515809017006333 2.3530244544535108 2 71.384929673869621 1.12 2 74.465189925744255 3.5762025720483614 2 75.815149384361902 1.4200000000000004 2 77.265567177317905 3.6081911305664724 2 86.673659523876154 2.6958366071902136 2 89.300712709669298 2.6405868496845959 2 91.528253792910107 1.4200036510562994 2 95.078282992844734 3.0571941938342118 2 98.879999999999995 1.12 2 1.12 1.12 2 3.3600061801806405 1.12 2 6.8833689034258949 5.8237422293265677 2 12.792274894350925 1.1203627404669609 2 14.410234043402552 2.6268140974350151 2 26.39773271149172 4.5170288881522618 2 29.552882322561778 2.9673250368782753 2 39.741177123307544 1.12 2 42.085404204264009 4.6029730757798069 2 46.225880153845516 4.1709485402929216 2 55.284018981759225 4.24397310811288 2 56.973964923556018 1.9063746849384027 2 67.287678499694209 3.1738706156746987 2 69.066383514207331 4.5477014489657357 2 72.259259990702446 3.1829107720244041 2 73.097729592843933 5.3540864659723448 2 75.840317660354188 5.3435783877520802 2 86.090591406217058 4.8618132985396745 2 88.333510690681436 4.6610709991146608 2 96.669155254976687 1.4802298657406807 2 98.879999999999995 3.3614035363109234 2 </DataArray>
<DataArray Name="forces" NumberOfComponents="3" format="ascii" type="Float32">0.0 0.0 0.0 -0.077709871551443988 -0.025007508023542308 0.0 0.0085798301047657535 0.028196499971694797 0.0 0.069130041446678239 -0.0031889919481524896 0.0 0.0088207588879956784 0.017363985009370475 0.0 0.0 0.0 0.0 0.0 0.0 0.0 0.0 0.0 0.0 -3.6620379161225771e-05 -2.8130747118738342e-05 0.0 0.0 0.0 0.0 0.0 0.0 0.0 0.0 0.0 0.0 0.0 0.0 0.0 0.0 0.0 0.0 0.0 0.0 0.0 0.0 0.0 0.0 0.0 0.0 0.0 0.0 0.0 0.0 0.0 0.0 0.0 0.0 0.0 0.0 0.0 0.0 0.0 4.4342603841498569e-05 -0.00021653798443037992 0.0 -0.0014040337135028487 -0.0033180311050434474 0.0 -0.0074259909398491772 0.011926664492144329 0.0 0.0074259909398491772 -0.011926664492144329 0.0 0.0 0.0 0.0 0.0 0.0 0.0 0.0 0.0 0.0 0.0 0.0 0.0 0.0 0.0 0.0 0.0 0.0 0.0 -0.099993819819359953 0.0 0.0 0.099993819819359953 0.0 0.0 0.0 0.0 0.0 0.039542864203840906 0.00036271804894475639 0.0 0.0 0.0 0.0 0.0 0.0 0.0 3.6620379161225771e-05 2.8130747118738342e-05 0.0 0.0 0.0 0.0 0.0 0.0 0.0 0.0 0.0 0.0 0.0 0.0 0.0 0.0 0.0 0.0 0.0 0.0 0.0 -4.4342603841498569e-05 0.00021653798443037992 0.0 0.0014040337135028487 0.0033180311050434474 0.0 0.0 0.0 0.0 0.0 0.0 0.0 0.0 0.0 0.0 0.0 0.0 0.0 0.0 0.0 0.0 0.0 0.0 0.0 </DataArray>
<DataArray Name="radii" format="ascii" type="Float32">1.12 1.12 1.12 1.4200000000000004 1.12 1.12 1.4200000000000004 1.12 1.4200000000000004 1.12 1.4200000000000004 1.4200000000000004 1.4200000000000004 1.12 1.12 1.12 1.4200000000000004 1.12 1.12 1.4200000000000004 1.12 1.12 1.12 1.12 1.4200000000000004 1.12 1.12 1.12 1.4200000000000004 1.12 1.12 1.12 1.12 1.12 1.12 1.12 1.12 1.12 1.12 1.12 1.12 1.12 1.12 1.12 1.12 1.12 1.12 1.12 1.12 1.12 1.12 1.12 </DataArray>
</PointData>
<CellData/>
</Piece>
</UnstructuredGrid>
</VTKFile>
