<?xml version="1.0" ?>
<VTKFile byte_order="LittleEndian" type="UnstructuredGrid" version="0.1">
<UnstructuredGrid>
<Piece NumberOfCells="0" NumberOfPoints="62">
<Points>
<DataArray NumberOfComponents="3" format="ascii" type="Float32">2.4569996830543963 3.8489740277859998 2 6.7068776429633941 1.4448254177485171 2 5.4654660918054958 3.910382010977278 2 8.1086187926642896 3.5899696183704002 2 11.704078020808415 3.5496229586834454 2 15.687153822052993 6.4244640127206871 2 16.440241937828457 1.2100000000000002 2 24.571082950283394 3.2173108041882923 2 27.984384757929103 1.2100000000000002 2 28.839460030489789 6.2630244602132494 2 30.404188020209215 1.2100000000000002 2 33.390856671806688 3.672733981754003 2 38.127598795890137 3.4716540492746977 2 42.277499672080879 1.7943840733579606 2 44.405669893591934 3.4883641119866091 2 48.498653432261143 3.7482806911746094 2 50.861688523440705 2.6332999197165488 2 53.347196083696552 3.2866781303010892 2 59.017286751983981 3.5587663816140229 2 63.110501061379487 2.1151185366889638 2 63.792979908703707 4.5919825025206622 2 68.856926387658291 2.7514869406681877 2 71.190031029562135 1.3600000000000003 2 73.772635432314402 5.2062211698938325 2 75.261103652787213 3.1110659054799754 2 77.021121586857973 5.1125341260602504 2 87.132500399994811 3.3592755254746067 2 89.85242177996885 3.3572795674420934 2 92.426306856425597 3.390693951933287 2 94.934853869697889 3.9437093814712183 2 98.64 1.3600000000000003 2 1.3600000000000003 1.3600000000000003 2 3.9802772608562518 1.3600000000000003 2 7.0343278693795313 6.1319926866351446 2 13.866056454224783 1.3632464780516855 2 15.21560251438761 3.7513109864253416 2 25.848617127854173 5.707735900268796 2 29.684105461381218 3.6764041503173313 2 39.592406842952059 1.3600000000000003 2 41.936662549165412 4.6945611397119666 2 46.338911366862369 5.4017360811015545 2 55.47479602483984 4.9817336372165686 2 56.517025529838222 2.4698359042193143 2 66.442966547814976 3.9764323667008283 2 68.898452756161461 5.4665122130622352 2 71.295618086754729 4.082436483820393 2 71.866193171069824 7.1428163076572035 2 75.470990291318216 7.3435339113910265 2 87.426330295663078 6.6526575106141115 2 90.080128921100069 6.0677755272256837 2 95.955576043514313 1.4284576166456719 2 98.640000000000001 4.0800000025249572 2 9.1770947742950284 1.2141825411938709 2 18.668816229913432 2.0476506327919801 2 27.121830831050278 3.4713604822331439 2 32.821675487458556 1.3206483112290139 2 35.119263750038719 5.4251164672761787 2 35.738588459753487 3.0857496677207155 2 48.904509203999872 1.2100000000000002 2 60.866248496582571 1.2100000000000002 2 73.730894506755291 1.2166540978623297 2 91.27726246649172 1.2283535698874055 2 </DataArray>
</Points>
<Cells>
<DataArray Name="connectivity" format="ascii" type="Int32">0</DataArray>
<DataArray Name="offsets" format="ascii" type="Int32">0</DataArray>
<DataArray Name="types" format="ascii" type="UInt8">1</DataArray>
</Cells>
<PointData>
<DataArray Name="Points" NumberOfComponents="3" format="ascii" type="Float32">2.4569996830543963 3.8489740277859998 2 6.7068776429633941 1.4448254177485171 2 5.4654660918054958 3.910382010977278 2 8.1086187926642896 3.5899696183704002 2 11.704078020808415 3.5496229586834454 2 15.687153822052993 6.4244640127206871 2 16.440241937828457 1.2100000000000002 2 24.571082950283394 3.2173108041882923 2 27.984384757929103 1.2100000000000002 2 28.839460030489789 6.2630244602132494 2 30.404188020209215 1.2100000000000002 2 33.390856671806688 3.672733981754003 2 38.127598795890137 3.4716540492746977 2 42.277499672080879 1.7943840733579606 2 44.405669893591934 3.4883641119866091 2 48.498653432261143 3.7482806911746094 2 50.861688523440705 2.6332999197165488 2 53.347196083696552 3.2866781303010892 2 59.017286751983981 3.5587663816140229 2 63.110501061379487 2.1151185366889638 2 63.792979908703707 4.5919825025206622 2 68.856926387658291 2.7514869406681877 2 71.190031029562135 1.3600000000000003 2 73.772635432314402 5.2062211698938325 2 75.261103652787213 3.1110659054799754 2 77.021121586857973 5.1125341260602504 2 87.132500399994811 3.3592755254746067 2 89.85242177996885 3.3572795674420934 2 92.426306856425597 3.390693951933287 2 94.934853869697889 3.9437093814712183 2 98.64 1.3600000000000003 2 1.3600000000000003 1.3600000000000003 2 3.9802772608562518 1.3600000000000003 2 7.0343278693795313 6.1319926866351446 2 13.866056454224783 1.3632464780516855 2 15.21560251438761 3.7513109864253416 2 25.848617127854173 5.707735900268796 2 29.684105461381218 3.6764041503173313 2 39.592406842952059 1.3600000000000003 2 41.936662549165412 4.6945611397119666 2 46.338911366862369 5.4017360811015545 2 55.47479602483984 4.9817336372165686 2 56.517025529838222 2.4698359042193143 2 66.442966547814976 3.9764323667008283 2 68.898452756161461 5.4665122130622352 2 71.295618086754729 4.082436483820393 2 71.866193171069824 7.1428163076572035 2 75.470990291318216 7.3435339113910265 2 87.426330295663078 6.6526575106141115 2 90.080128921100069 6.0677755272256837 2 95.955576043514313 1.4284576166456719 2 98.640000000000001 4.0800000025249572 2 9.1770947742950284 1.2141825411938709 2 18.668816229913432 2.0476506327919801 2 27.121830831050278 3.4713604822331439 2 32.821675487458556 1.3206483112290139 2 35.119263750038719 5.4251164672761787 2 35.738588459753487 3.0857496677207155 2 48.904509203999872 1.2100000000000002 2 60.866248496582571 1.2100000000000002 2 73.730894506755291 1.2166540978623297 2 91.27726246649172 1.2283535698874055 2 </DataArray>
<DataArray Name="forces" NumberOfComponents="3" format="ascii" type="Float32">0.0 0.0 0.0 0.19217810591893106 0.0043938467683315632 0.0 -0.00085780342349453184 0.0018546545419606082 0.0 0.0 0.0 0.0 0.0 0.0 0.0 0.0 0.0 0.0 0.099319326833215538 -0.0064503565099288986 0.0 0.017917645124810689 0.0042584785065822644 0.0 0.00052748404494559113 -0.0013886318521525297 0.0 0.0 0.0 0.0 -0.00046216389415881868 -2.1155328695574885e-05 0.0 0.0 0.0 0.0 2.9582347715963823e-05 4.7790188765752046e-06 0.0 8.6162526675547324e-05 1.393927757945287e-05 0.0 0.0 0.0 0.0 0.0 0.0 0.0 7.9711184115669159e-05 5.7968794806617126e-05 0.0 -7.9723576791698316e-05 0.00015471534337301834 0.0 0.0 0.0 0.0 0.0029244742176950988 0.0011802556996275274 0.0 -0.012893711315141122 0.002995005949886078 0.0 -0.030584774421817607 0.018366347697531676 0.0 0.030584774421817607 -0.018366347697531676 0.0 -0.0053233353538151102 0.0074996599123526428 0.0 0.0066429125917452023 -0.0058239329789555316 0.0 0.00089697332298135923 0.0025242367061723324 0.0 -0.0045064111902181894 -1.8037983193254698e-06 0.0 0.0040032527554828348 -0.0059264604649279223 0.0 0.0012668684152013891 0.0032943496625252137 0.0 0.00041948205052459221 9.2738144397945795e-05 0.0 0.072327857070913229 -0.0018444898393194214 0.0 -0.00035254441199139563 0.0 0.0 -0.19096775808344513 -0.0062485013102921714 0.0 0.0 0.0 0.0 -0.10997756496393847 -0.013188304197878475 0.0 0.010658238130722938 0.019638660707807374 0.0 0.0 0.0 0.0 0.0061200826215337348 0.00049153252761118536 0.0 -8.6162526675547324e-05 -1.393927757945287e-05 0.0 0.0 0.0 0.0 0.0 0.0 0.0 0.0 0.0 0.0 -0.001328172708631272 0.00089080658619017719 0.0 0.012893711315141122 -0.002995005949886078 0.0 0.0 0.0 0.0 0.0 0.0 0.0 0.0 0.0 0.0 -0.0029992760126902225 0.0043204986736551394 0.0 0.011582129183428791 0.0071490459766088742 0.0 0.00050315843473535435 0.0059282642632472477 0.0 -0.072327857070913229 0.0018444898393194214 0.0 0.0 0.0 0.0 -0.15709660784780541 0.0080379284456596201 0.0 -0.047570534817046366 -0.0082317900514250475 0.0 -0.0066475666664793263 0.00089709932454134437 0.0 0.00046216389415881868 2.1155328695574885e-05 0.0 -1.7520458752096262e-06 6.6181075153121779e-06 0.0 2.8945411913714172e-06 7.6338320010830158e-05 0.0 -7.9711184115669159e-05 -5.7968794806617126e-05 0.0 -0.0029244742176950988 -0.0011802556996275274 0.0 -0.059356314089638033 0.0041389249711552695 0.0 -0.13740133995234066 0.0044926690376868635 0.0 </DataArray>
<DataArray Name="radii" format="ascii" type="Float32">1.3600000000000003 1.3600000000000003 1.3600000000000003 1.2100000000000002 1.3600000000000003 1.3600000000000003 1.2100000000000002 1.3600000000000003 1.2100000000000002 1.3600000000000003 1.2100000000000002 1.2100000000000002 1.2100000000000002 1.3600000000000003 1.3600000000000003 1.3600000000000003 1.2100000000000002 1.3600000000000003 1.3600000000000003 1.2100000000000002 1.3600000000000003 1.3600000000000003 1.3600000000000003 1.3600000000000003 1.2100000000000002 1.3600000000000003 1.3600000000000003 1.3600000000000003 1.2100000000000002 1.3600000000000003 1.3600000000000003 1.3600000000000003 1.3600000000000003 1.3600000000000003 1.3600000000000003 1.3600000000000003 1.3600000000000003 1.3600000000000003 1.3600000000000003 1.3600000000000003 1.3600000000000003 1.3600000000000003 1.3600000000000003 1.3600000000000003 1.3600000000000003 1.3600000000000003 1.3600000000000003 1.3600000000000003 1.3600000000000003 1.3600000000000003 1.3600000000000003 1.3600000000000003 1.2100000000000002 1.2100000000000002 1.2100000000000002 1.2100000000000002 1.2100000000000002 1.2100000000000002 1.2100000000000002 1.2100000000000002 1.2100000000000002 1.2100000000000002 </DataArray>
</PointData>
<CellData/>
</Piece>
</UnstructuredGrid>
</VTKFile>
