<?xml version="1.0" ?>
<VTKFile byte_order="LittleEndian" type="UnstructuredGrid" version="0.1">
<UnstructuredGrid>
<Piece NumberOfCells="0" NumberOfPoints="104">
<Points>
<DataArray NumberOfComponents="3" format="ascii" type="Float32">1.6815939018460786 5.0049836473331561 2 7.474535650387768 1.03 2 5.3758155782967423 5.1275931805411021 2 9.1651030617463185 4.4455598094979463 2 11.702212808548621 5.078346989422986 2 15.281382198441632 7.1817720713293571 2 17.283577091181566 1.3300000000000003 2 24.453395017577527 3.812567363384133 2 27.559176589735948 1.3300000000000003 2 28.285020343534388 6.4255116090606821 2 30.21918190185367 1.3300000000000003 2 33.388292879695157 3.99321798930709 2 38.494520940960825 3.9263554122628372 2 41.167800961560587 2.5926657548943517 2 45.393362060695814 2.8437692288040881 2 48.615692345219415 3.6486350866042128 2 50.946344958996619 3.2025544268721005 2 53.111127652596068 4.1424377945851028 2 58.800875417232781 3.8874660508128418 2 63.185658200885157 1.6014003608922083 2 62.96017292118033 6.0137438853054608 2 67.692333630235581 3.0313298476014068 2 71.276068470712929 1.03 2 73.536831862804746 6.4503691755138863 2 74.51213393714707 3.8336539157987004 2 77.413319582023746 5.3615940400479598 2 88.116872330026595 3.8029263697859883 2 90.149986289862952 3.434928335330901 2 92.934349663932991 3.4630879361630953 2 95.097304518094703 4.442805246112381 2 96.909511267354901 1.03 2 1.03 3.0507636181054747 2 3.4222614528224455 1.5544741100197785 2 7.2926755153896501 5.8820863390555429 2 14.470132268493931 1.03 2 15.041573512278646 5.1357714109738506 2 25.38606463945591 5.6493383068085024 2 29.355865311398027 4.6657029284557536 2 39.562200499401662 1.3020647626540325 2 41.135975296449246 5.8565993361326045 2 46.34662562487987 6.0620618296423485 2 55.775324387377559 4.8759857730347038 2 56.889467254325275 3.1191068211437978 2 65.140064494236299 3.7546311013892484 2 68.551620393938265 6.0412418154252379 2 71.173082218871258 3.0915566045408913 2 72.62584162204989 8.3023814544306536 2 74.688088749365249 8.1624763056049332 2 89.02556497448137 8.1898530000283127 2 90.888668622637269 7.3046229926611685 2 95.415525227639051 2.4219656814945747 2 98.448822095957055 5.159181748551263 2 9.8154610719534041 1.3300134168573836 2 19.506109273455319 2.7914724140435898 2 27.10659761480828 3.9512100783189159 2 32.899772116821723 1.3314918123349653 2 35.243071109847421 5.8998828115799347 2 35.931641440224055 3.2141472136550528 2 49.057100478876528 1.3300000000000003 2 60.551007358316475 1.3307050824463647 2 73.635587243632159 1.333092660449047 2 91.362688160683689 1.3661654167167121 2 3.1894111985207818 3.6012753004465243 2 7.2421453335823252 3.0771508855189373 2 5.1815210817300681 3.0767834498311495 2 11.448283800829122 3.0340333420867083 2 17.092972300280067 6.1406906911944308 2 25.053624845150736 1.8419438802399821 2 30.184137830030359 7.2238510234301083 2 42.51007537394527 1.03 2 44.424540411416658 4.6617313300354404 2 48.373558227017021 5.6943813568946906 2 54.832307573221399 3.0105630001601922 2 60.849721814515064 3.6728069583491876 2 63.093694883276733 3.9570753075444736 2 69.42023551260867 4.1607397327995903 2 69.458336466106999 1.9484279954718351 2 72.287020822741766 4.7829921558386177 2 75.570909402065595 6.3134512306425643 2 86.216075661269542 3.0309573066658291 2 89.445293146005255 5.3899834996586584 2 95.686269720587291 6.4117543143547255 2 98.97 1.03 2 1.4301481481551785 1.03 2 5.4145029310960906 1.03 2 7.1015798616676422 7.9332035248570287 2 13.977568107041815 3.0325667959408529 2 16.017210200836711 3.3214715344100787 2 26.470498138642327 7.4007962801612113 2 31.074271453629798 3.5296295543014007 2 37.52024295164464 1.03 2 42.408823975098336 4.2368896601178596 2 44.394984868204155 6.7215191363775819 2 55.216624591787344 6.8588031179679474 2 56.007932691504863 1.2568258985824761 2 66.85521964130001 4.9095748194103592 2 68.538067817575936 8.1033125075318964 2 70.633752724438523 5.9189920448560454 2 70.599110548291549 7.9872735417937051 2 75.887384991403607 9.8400732417320835 2 87.304109743455413 9.3176423825160395 2 91.501879629688275 5.3451283102338216 2 96.983003509971482 3.6653834135468468 2 98.97 3.0807260441958153 2 </DataArray>
</Points>
<Cells>
<DataArray Name="connectivity" format="ascii" type="Int32">0</DataArray>
<DataArray Name="offsets" format="ascii" type="Int32">0</DataArray>
<DataArray Name="types" format="ascii" type="UInt8">1</DataArray>
</Cells>
<PointData>
<DataArray Name="Points" NumberOfComponents="3" format="ascii" type="Float32">1.6815939018460786 5.0049836473331561 2 7.474535650387768 1.03 2 5.3758155782967423 5.1275931805411021 2 9.1651030617463185 4.4455598094979463 2 11.702212808548621 5.078346989422986 2 15.281382198441632 7.1817720713293571 2 17.283577091181566 1.3300000000000003 2 24.453395017577527 3.812567363384133 2 27.559176589735948 1.3300000000000003 2 28.285020343534388 6.4255116090606821 2 30.21918190185367 1.3300000000000003 2 33.388292879695157 3.99321798930709 2 38.494520940960825 3.9263554122628372 2 41.167800961560587 2.5926657548943517 2 45.393362060695814 2.8437692288040881 2 48.615692345219415 3.6486350866042128 2 50.946344958996619 3.2025544268721005 2 53.111127652596068 4.1424377945851028 2 58.800875417232781 3.8874660508128418 2 63.185658200885157 1.6014003608922083 2 62.96017292118033 6.0137438853054608 2 67.692333630235581 3.0313298476014068 2 71.276068470712929 1.03 2 73.536831862804746 6.4503691755138863 2 74.51213393714707 3.8336539157987004 2 77.413319582023746 5.3615940400479598 2 88.116872330026595 3.8029263697859883 2 90.149986289862952 3.434928335330901 2 92.934349663932991 3.4630879361630953 2 95.097304518094703 4.442805246112381 2 96.909511267354901 1.03 2 1.03 3.0507636181054747 2 3.4222614528224455 1.5544741100197785 2 7.2926755153896501 5.8820863390555429 2 14.470132268493931 1.03 2 15.041573512278646 5.1357714109738506 2 25.38606463945591 5.6493383068085024 2 29.355865311398027 4.6657029284557536 2 39.562200499401662 1.3020647626540325 2 41.135975296449246 5.8565993361326045 2 46.34662562487987 6.0620618296423485 2 55.775324387377559 4.8759857730347038 2 56.889467254325275 3.1191068211437978 2 65.140064494236299 3.7546311013892484 2 68.551620393938265 6.0412418154252379 2 71.173082218871258 3.0915566045408913 2 72.62584162204989 8.3023814544306536 2 74.688088749365249 8.1624763056049332 2 89.02556497448137 8.1898530000283127 2 90.888668622637269 7.3046229926611685 2 95.415525227639051 2.4219656814945747 2 98.448822095957055 5.159181748551263 2 9.8154610719534041 1.3300134168573836 2 19.506109273455319 2.7914724140435898 2 27.10659761480828 3.9512100783189159 2 32.899772116821723 1.3314918123349653 2 35.243071109847421 5.8998828115799347 2 35.931641440224055 3.2141472136550528 2 49.057100478876528 1.3300000000000003 2 60.551007358316475 1.3307050824463647 2 73.635587243632159 1.333092660449047 2 91.362688160683689 1.3661654167167121 2 3.1894111985207818 3.6012753004465243 2 7.2421453335823252 3.0771508855189373 2 5.1815210817300681 3.0767834498311495 2 11.448283800829122 3.0340333420867083 2 17.092972300280067 6.1406906911944308 2 25.053624845150736 1.8419438802399821 2 30.184137830030359 7.2238510234301083 2 42.51007537394527 1.03 2 44.424540411416658 4.6617313300354404 2 48.373558227017021 5.6943813568946906 2 54.832307573221399 3.0105630001601922 2 60.849721814515064 3.6728069583491876 2 63.093694883276733 3.9570753075444736 2 69.42023551260867 4.1607397327995903 2 69.458336466106999 1.9484279954718351 2 72.287020822741766 4.7829921558386177 2 75.570909402065595 6.3134512306425643 2 86.216075661269542 3.0309573066658291 2 89.445293146005255 5.3899834996586584 2 95.686269720587291 6.4117543143547255 2 98.97 1.03 2 1.4301481481551785 1.03 2 5.4145029310960906 1.03 2 7.1015798616676422 7.9332035248570287 2 13.977568107041815 3.0325667959408529 2 16.017210200836711 3.3214715344100787 2 26.470498138642327 7.4007962801612113 2 31.074271453629798 3.5296295543014007 2 37.52024295164464 1.03 2 42.408823975098336 4.2368896601178596 2 44.394984868204155 6.7215191363775819 2 55.216624591787344 6.8588031179679474 2 56.007932691504863 1.2568258985824761 2 66.85521964130001 4.9095748194103592 2 68.538067817575936 8.1033125075318964 2 70.633752724438523 5.9189920448560454 2 70.599110548291549 7.9872735417937051 2 75.887384991403607 9.8400732417320835 2 87.304109743455413 9.3176423825160395 2 91.501879629688275 5.3451283102338216 2 96.983003509971482 3.6653834135468468 2 98.97 3.0807260441958153 2 </DataArray>
<DataArray Name="forces" NumberOfComponents="3" format="ascii" type="Float32">0.0 0.0 0.0 0.0 0.0 0.0 -2.6118848568651841e-06 -1.0280620214169919e-06 0.0 0.0 0.0 0.0 0.0 0.0 0.0 6.9533046825868907e-07 5.9324231327287658e-06 0.0 1.4361215564792203e-05 -2.258452246940463e-05 0.0 0.0 0.0 0.0 -1.6381131557085475e-05 -2.6561753467988247e-06 0.0 -1.7470810196199236e-06 2.871187431727088e-06 0.0 4.7820963343353886e-06 -3.1016219744725599e-05 0.0 1.860136098279002e-05 3.726816264388272e-06 0.0 0.0 0.0 0.0 0.0 0.0 0.0 0.0 0.0 0.0 0.0 0.0 0.0 0.0 0.0 0.0 0.0 0.0 0.0 0.0 0.0 0.0 -0.0094555065441852132 0.0019914769445839317 0.0 -5.9145286897041237e-05 0.00091102805241861614 0.0 -0.0063271774031113306 0.0023261786681364176 0.0 -0.017365364950284866 -0.0231033230405117 0.0 0.012085172159309054 0.0047235049243753236 0.0 0.046951356676462323 -0.020380723780125027 0.0 -0.011509402062194717 -0.04976127306147686 0.0 -0.0055343802804569287 0.0010017348291185141 0.0 0.0055343802804569287 -0.0010017348291185141 0.0 -0.013294907857606258 -0.015923251890718488 0.0 0.016431717232603161 0.00026170041705241877 0.0 -0.010462076996345271 0.0 0.0 -4.1790696708839727e-06 2.1104463402827975e-05 0.0 0.0 0.0 0.0 2.6660048628494932e-06 4.4715859124104796e-07 0.0 0.0 0.0 0.0 -6.9533046825868907e-07 -5.9324231327287658e-06 0.0 0.0 0.0 0.0 2.0783589286565803e-05 3.175924331433986e-06 0.0 0.0 0.0 0.0 -7.6485090071747148e-07 9.7327747920105937e-07 0.0 0.0 0.0 0.0 0.0 0.0 0.0 0.0 0.0 0.0 -0.0057029578932613744 -0.0038342734472043391 0.0 -0.023248739302275969 -0.001858975944241207 0.0 0.005463283183558776 0.025065265608879971 0.0 -0.0083313510654793276 0.0076731973101979434 0.0 0.0021926230393890089 -0.0039052792625984562 0.0 -0.0022415693251550879 0.0010650531612586647 0.0 0.0022415693251550879 -0.0010650531612586647 0.0 0.048415788024509215 0.038238838280746319 0.0 0.011214368820798688 0.011751918054631036 0.0 0.0 0.0 0.0 -2.9509636258757248e-06 -1.0422562678525023e-06 0.0 -1.9495120432434647e-05 -3.3909364163622493e-06 0.0 -5.836202352855398e-08 8.3885638337949236e-09 0.0 0.0 0.0 0.0 1.1034042996498163e-06 3.3671418191925985e-06 0.0 0.0 0.0 0.0 0.0058349818026971539 0.00055642570408772859 0.0 0.018655072846497107 0.0024149463000825485 0.0 0.086178535144180904 0.013689021365529342 0.0 0.0 0.0 0.0 0.0 0.0 0.0 -1.3850875889448462e-06 1.2168295525273553e-05 0.0 0.0 0.0 0.0 0.0 0.0 0.0 0.0 0.0 0.0 0.0 0.0 0.0 0.0 0.0 0.0 1.2233064791172597e-06 1.7493086026743659e-07 0.0 0.0 0.0 0.0 0.0 0.0 0.0 0.0 0.0 0.0 5.9145286897041237e-05 -0.00091102805241861614 0.0 0.0011910038030776299 0.00078315675410781072 0.0 0.012305860459327956 -0.00081555789902193259 0.0 -0.055487889044879321 0.0082819706152889843 0.0 -0.023366573749095849 0.011337318978299617 0.0 0.005348474261546189 0.0073732638542662798 0.0 0.0 0.0 0.0 0.0025595429251035009 0.0083150870713819061 0.0 0.010462076996345271 -0.0022162440552961904 0.0 4.1790696708839727e-06 -2.1104463402827975e-05 0.0 1.3850875889448462e-06 -1.2168295525273553e-05 0.0 -5.412000598430921e-08 5.8090343017594396e-07 0.0 0.0 0.0 0.0 -1.4361215564792203e-05 2.258452246940463e-05 0.0 0.0 0.0 0.0 -6.5437135945511674e-06 2.7289403480337326e-05 0.0 0.0 0.0 0.0 -4.5726972444050279e-07 -1.2308565774718288e-06 0.0 -1.1858539592855474e-09 8.2648238003332813e-08 0.0 0.0 0.0 0.0 0.003307101680934013 0.00024399729287399077 0.0 0.0051085908894024298 0.0051469962705084707 0.0 -0.0041635660096535883 0.0034259014498667492 0.0 0.023347022074584875 -0.0079057112682220133 0.0 0.004065283237344685 0.0063387857625964716 0.0 0.0025900882351982627 0.0036073301928612315 0.0 0.0069711324274364522 0.010325073431706994 0.0 -0.0056963523001004037 0.0073464644022841639 0.0 -0.041213123298500534 -0.002792946643776207 0.0 0.029998754477701842 -0.0067427273555586385 0.0 </DataArray>
<DataArray Name="radii" format="ascii" type="Float32">1.03 1.03 1.03 1.3300000000000003 1.03 1.03 1.3300000000000003 1.03 1.3300000000000003 1.03 1.3300000000000003 1.3300000000000003 1.3300000000000003 1.03 1.03 1.03 1.3300000000000003 1.03 1.03 1.3300000000000003 1.03 1.03 1.03 1.03 1.3300000000000003 1.03 1.03 1.03 1.3300000000000003 1.03 1.03 1.03 1.03 1.03 1.03 1.03 1.03 1.03 1.03 1.03 1.03 1.03 1.03 1.03 1.03 1.03 1.03 1.03 1.03 1.03 1.03 1.03 1.3300000000000003 1.3300000000000003 1.3300000000000003 1.3300000000000003 1.3300000000000003 1.3300000000000003 1.3300000000000003 1.3300000000000003 1.3300000000000003 1.3300000000000003 1.03 1.03 1.03 1.03 1.03 1.03 1.03 1.03 1.03 1.03 1.03 1.03 1.03 1.03 1.03 1.03 1.03 1.03 1.03 1.03 1.03 1.03 1.03 1.03 1.03 1.03 1.03 1.03 1.03 1.03 1.03 1.03 1.03 1.03 1.03 1.03 1.03 1.03 1.03 1.03 1.03 1.03 </DataArray>
</PointData>
<CellData/>
</Piece>
</UnstructuredGrid>
</VTKFile>
