<?xml version="1.0" ?>
<VTKFile byte_order="LittleEndian" type="UnstructuredGrid" version="0.1">
<UnstructuredGrid>
<Piece NumberOfCells="0" NumberOfPoints="74">
<Points>
<DataArray NumberOfComponents="3" format="ascii" type="Float32">12.823975828095007 1.1 2 21.319992128864882 6.7433438788107125 2 20.901878536267414 1 2 21.799419087076082 3.1012562214732879 2 22.886185918352691 1 2 35.506277937063331 1 2 44.920927393931898 1 2 46.987436581407266 1.1 2 51.38466426824904 1 2 53.454273564380905 1.1 2 58.212280793708274 1.1 2 64.919346559427439 1.1 2 66.928537350033977 1 2 82.139011649062596 2.0192073609220542 2 86.471397100839809 4.6720464749441968 2 87.581045569714718 1 2 89.507722627329954 1 2 93.786814644836184 1.1 2 74.704730943606691 14.53098619811051 2 84.257690830286307 15.122741972048422 2 76.722575578451142 1.5411486808492678 2 87.489558804381687 6.3710784178471567 2 76.575597647356531 13.820121336587041 2 78.142972056069283 6.0035543883366769 2 83.745414305425996 7.0062707942485289 2 80.476032002476856 15.310196897104634 2 74.908654372445525 1 2 89.468454180700292 14.855870737212975 2 82.106843656530899 8.7644489828943648 2 80.601057208202548 5.6062074277117162 2 83.741186214460342 1 2 79.09997632261549 16.75973682180248 2 73.130756433017453 3.3258889098942714 2 89.653311762052681 9.6047889107549498 2 79.782739236339481 11.659904427803189 2 86.243504962435168 12.083777930030152 2 90.625482634466948 12.153634164320701 2 79.553846565252925 3.9324960558731119 2 85.665397032882737 1 2 81.974309778940921 16.616020577441827 2 76.260841948139529 4.4545654246558035 2 88.933257880254587 7.7465476293126247 2 75.107648024712461 12.548003861971944 2 82.385189960950868 11.196963147059712 2 85.945900563428268 14.060767492303208 2 81.497892592453269 3.8340188163970192 2 75.592124555805498 6.3711730451955235 2 79.855115950279981 9.7384761082407003 2 87.80425332063038 13.325743830961768 2 87.211154132252176 10.345618901553655 2 76.56317105896494 8.077267598970149 2 84.908322349286053 9.3735772350266817 2 80.508575160870521 1 2 84.563579161075921 5.1598077855569127 2 82.339805013455802 14.590047369290152 2 78.57310669358327 1 2 85.665762247039652 6.9372988185212217 2 78.135257752364296 15.031927771575639 2 82.580126301590894 5.4381822488272267 2 79.48994054305507 13.593004175518402 2 87.515629862547868 15.300451506579963 2 80.056156881418659 7.4690605021658678 2 74.349071082062224 4.8662867403791026 2 77.91173437893849 12.338003957934429 2 84.282508581626274 11.766241427055787 2 88.733603909607851 11.561628293319568 2 77.76529869804007 3.1716400904284536 2 85.427332332341592 2.9799121163488338 2 83.103118390944744 18.260049623756583 2 75.071188876833574 2.9384341619779786 2 81.348485248492835 12.876834288852784 2 83.489051018378916 3.4886414602092319 2 78.413494158884575 8.4836515983965413 2 87.12971804644917 8.3278702902805239 2 </DataArray>
</Points>
<Cells>
<DataArray Name="connectivity" format="ascii" type="Int32">0</DataArray>
<DataArray Name="offsets" format="ascii" type="Int32">0</DataArray>
<DataArray Name="types" format="ascii" type="UInt8">1</DataArray>
</Cells>
<PointData>
<DataArray Name="Points" NumberOfComponents="3" format="ascii" type="Float32">12.823975828095007 1.1 2 21.319992128864882 6.7433438788107125 2 20.901878536267414 1 2 21.799419087076082 3.1012562214732879 2 22.886185918352691 1 2 35.506277937063331 1 2 44.920927393931898 1 2 46.987436581407266 1.1 2 51.38466426824904 1 2 53.454273564380905 1.1 2 58.212280793708274 1.1 2 64.919346559427439 1.1 2 66.928537350033977 1 2 82.139011649062596 2.0192073609220542 2 86.471397100839809 4.6720464749441968 2 87.581045569714718 1 2 89.507722627329954 1 2 93.786814644836184 1.1 2 74.704730943606691 14.53098619811051 2 84.257690830286307 15.122741972048422 2 76.722575578451142 1.5411486808492678 2 87.489558804381687 6.3710784178471567 2 76.575597647356531 13.820121336587041 2 78.142972056069283 6.0035543883366769 2 83.745414305425996 7.0062707942485289 2 80.476032002476856 15.310196897104634 2 74.908654372445525 1 2 89.468454180700292 14.855870737212975 2 82.106843656530899 8.7644489828943648 2 80.601057208202548 5.6062074277117162 2 83.741186214460342 1 2 79.09997632261549 16.75973682180248 2 73.130756433017453 3.3258889098942714 2 89.653311762052681 9.6047889107549498 2 79.782739236339481 11.659904427803189 2 86.243504962435168 12.083777930030152 2 90.625482634466948 12.153634164320701 2 79.553846565252925 3.9324960558731119 2 85.665397032882737 1 2 81.974309778940921 16.616020577441827 2 76.260841948139529 4.4545654246558035 2 88.933257880254587 7.7465476293126247 2 75.107648024712461 12.548003861971944 2 82.385189960950868 11.196963147059712 2 85.945900563428268 14.060767492303208 2 81.497892592453269 3.8340188163970192 2 75.592124555805498 6.3711730451955235 2 79.855115950279981 9.7384761082407003 2 87.80425332063038 13.325743830961768 2 87.211154132252176 10.345618901553655 2 76.56317105896494 8.077267598970149 2 84.908322349286053 9.3735772350266817 2 80.508575160870521 1 2 84.563579161075921 5.1598077855569127 2 82.339805013455802 14.590047369290152 2 78.57310669358327 1 2 85.665762247039652 6.9372988185212217 2 78.135257752364296 15.031927771575639 2 82.580126301590894 5.4381822488272267 2 79.48994054305507 13.593004175518402 2 87.515629862547868 15.300451506579963 2 80.056156881418659 7.4690605021658678 2 74.349071082062224 4.8662867403791026 2 77.91173437893849 12.338003957934429 2 84.282508581626274 11.766241427055787 2 88.733603909607851 11.561628293319568 2 77.76529869804007 3.1716400904284536 2 85.427332332341592 2.9799121163488338 2 83.103118390944744 18.260049623756583 2 75.071188876833574 2.9384341619779786 2 81.348485248492835 12.876834288852784 2 83.489051018378916 3.4886414602092319 2 78.413494158884575 8.4836515983965413 2 87.12971804644917 8.3278702902805239 2 </DataArray>
<DataArray Name="forces" NumberOfComponents="3" format="ascii" type="Float32">0.0046814348025588518 -0.0065760899261193819 0.0 0.0001032999649002754 0.013865709904063874 0.0 2.9675597682327082e-05 -0.0013456837125642577 0.0 -0.00024959669218575613 -0.0068265409024474638 0.0 0.0013310878999038579 -0.018453708326104417 0.0 -0.0014363066934724028 -0.0097644929754361863 0.0 -0.0026031037569724802 -0.017399263114492632 0.0 0.00070601172269322415 -0.0090323380887473697 0.0 -0.0017436943090110915 -0.0033770242910604337 0.0 -0.0059174228520721441 -0.0018531070863605252 0.0 -0.0052757444491841193 -0.0074269418656088071 0.0 -0.020123149777553258 -0.014095575201143537 0.0 0.021706767261607227 -0.029692487211579615 0.0 0.027598271193469397 -0.089497302164147807 0.0 -0.028603780861857001 -0.038857319081009326 0.0 -0.019077496720286566 -0.02985719109518515 0.0 0.0076450430377459494 -0.0063363112220951364 0.0 -0.0012592704131981023 -0.0272163545231606 0.0 0.0017762470915478152 0.00083607635589017675 0.0 0.0079386808766528285 0.0048080137311578165 0.0 0.006812305415169119 0.0082800901239260052 0.0 0.010794680228905201 0.056922159773615894 0.0 -0.044162317662106237 -0.023368178162690423 0.0 0.064591344704201928 0.077451202499859068 0.0 -0.057009834049324498 0.12146624300896956 0.0 0.0028917369472294552 0.013806351749763943 0.0 0.016520623807204114 -0.099722347919634122 0.0 0.0 0.0 0.0 0.32663904787400122 0.017664064240050847 0.0 0.034727180582120896 -0.1005612677895055 0.0 -0.033799946275300474 -0.038246088548803146 0.0 0.0045708646010598659 0.0082097638979106505 0.0 -0.13308306954522914 -0.067796850875302461 0.0 -0.011654667064113316 0.013710980829955944 0.0 -0.0034141397585414242 0.0043596650819320518 0.0 0.0071505094550129919 -0.0071426959287119989 0.0 -0.008481553916933178 0.049228034310695161 0.0 0.098623145357954536 0.031427550068992512 0.0 0.022531661725898051 -0.0095030721474208667 0.0 0.0035229082148725173 0.00073179422394462155 0.0 -0.072428703884977214 -0.026555577699189793 0.0 -0.18986228432384694 0.03451508044442618 0.0 0.095681886930973639 0.083311990894908164 0.0 0.0038379026546426186 -0.0070190769743064714 0.0 -0.0010384959900614191 0.0038893597556395928 0.0 -0.059370789749694161 0.14459303175428947 0.0 -0.022017719563260037 -0.04143483192878708 0.0 -0.10546405679072368 0.047353299296135784 0.0 0.0064650899573460742 0.0058707828434085259 0.0 0.10349384928628301 0.088907508732803647 0.0 0.026581341106901663 -0.0065870916844897494 0.0 -0.27248391210745915 0.035724167763834698 0.0 0.013920448960841547 -0.035757799571815074 0.0 0.061089388435837132 -0.038066514734463153 0.0 -0.00016024642535057872 0.013236779838298497 0.0 -0.0022496780905676556 -0.019539276622265889 0.0 0.025303850712482825 0.022822460958111468 0.0 0.016342042077897249 0.045452582895516999 0.0 -0.10986165044677813 -0.075815971255185216 0.0 0.00045057484606441127 0.0028843608129194382 0.0 -0.00058285671222998655 0.0040189868958634143 0.0 -0.18970097662079222 -0.015056266253901118 0.0 0.057614736702872968 0.06809564431247897 0.0 -0.001468716765528945 -0.0018132697238585453 0.0 0.0078307939146710585 0.0040274504256096978 0.0 -0.019996616847040169 -0.012461273191336669 0.0 -0.048640465268937477 -0.016886276581907944 0.0 -0.001109540935507641 0.0095030721474208667 0.0 0.0040426833691646052 0.0058830606485204221 0.0 0.048275726803429585 0.012542290659249437 0.0 -0.012188314558072712 0.025589176781424326 0.0 0.028450253231902888 0.014292439985286636 0.0 0.063625034691245003 -0.012064020399890005 0.0 0.16694137190656963 -0.126269103904317 0.0 </DataArray>
<DataArray Name="radii" format="ascii" type="Float32">1.1 1.1 1 1.2000000000000002 1 1 1 1.1 1 1.1 1.1 1.1 1 1 1 1 1 1.1 1 1 1 1 1 1.5000000000000004 1 1 1 1 1.5000000000000004 1 1 1 1 1 1 1 1 1 1 1 1 1 1 1 1 1 1 1 1 1 1 1.5000000000000004 1 1 1 1 1 1 1 1 1 1 1 1 1 1 1 1 1 1 1 1 1 1 </DataArray>
</PointData>
<CellData/>
</Piece>
</UnstructuredGrid>
</VTKFile>
