<?xml version="1.0" ?>
<VTKFile byte_order="LittleEndian" type="UnstructuredGrid" version="0.1">
<UnstructuredGrid>
<Piece NumberOfCells="0" NumberOfPoints="52">
<Points>
<DataArray NumberOfComponents="3" format="ascii" type="Float32">2.0267305472912009 2.8344355697993047 2 5.0092152748576959 1.5875732299151601 2 6.0221616529883235 3.3201183719297016 2 7.2761586732449164 1.3322036274859919 2 11.390560863617301 2.372940642518071 2 15.110637715185515 4.3619547150008406 2 16.532704274284509 1.3300000000000003 2 25.503715487683674 2.3738209852307759 2 27.603835627571982 1.3300000000000003 2 29.170433255354151 4.7224926607363145 2 31.423155204694364 1.3300000000000003 2 33.754084905031483 2.6064044288679962 2 37.621726945761196 1.9045569962898765 2 41.709944873684378 1.9179698157361558 2 43.453574126970231 2.9039759820241779 2 48.206284038419426 2.8419091276889605 2 50.111798438749112 1.3300000000000003 2 53.555425043062201 2.6734513783696068 2 58.571582313415917 3.2458784288719373 2 62.045365829385396 1.3359240011810449 2 65.172044131471168 3.1096378095455948 2 69.836105030075601 2.2894088720337438 2 71.363404627155816 1.03 2 74.65126391799744 2.8025569902519329 2 76.627739650088159 1.3300000000000003 2 77.490167885747809 3.4971171632334337 2 86.575864628727189 2.6350629903407112 2 89.474069387175632 2.7113144289044855 2 91.419162631359697 1.3300000000000003 2 95.255326016909621 2.8506437758030532 2 98.859676506919072 1.03 2 1.03 1.03 2 3.0417589933572775 1.03 2 6.7044021222001051 5.2883099460618368 2 12.92979288917504 1.03 2 14.465339892615864 2.4380107878640116 2 26.273330145446366 4.2607225481076787 2 29.510633479976882 2.7203223004407855 2 39.720386630178801 1.03 2 42.159848545915168 4.5211265607184838 2 46.542300545820609 3.9617758277684709 2 55.041751971760789 4.0374656990884574 2 56.963639150069312 1.9508312312852429 2 67.224679503996697 3.2391899712955801 2 69.025720636010206 4.2579449295178371 2 72.668633526649472 2.7155116010760687 2 73.579107375275626 4.5159293167320262 2 76.002811379212645 4.9282700911698631 2 86.290034524144275 4.6712199766234335 2 88.333995018416545 4.397173511314981 2 96.869853829450278 1.5696377111234723 2 98.97 3.0870706628192282 2 </DataArray>
</Points>
<Cells>
<DataArray Name="connectivity" format="ascii" type="Int32">0</DataArray>
<DataArray Name="offsets" format="ascii" type="Int32">0</DataArray>
<DataArray Name="types" format="ascii" type="UInt8">1</DataArray>
</Cells>
<PointData>
<DataArray Name="Points" NumberOfComponents="3" format="ascii" type="Float32">2.0267305472912009 2.8344355697993047 2 5.0092152748576959 1.5875732299151601 2 6.0221616529883235 3.3201183719297016 2 7.2761586732449164 1.3322036274859919 2 11.390560863617301 2.372940642518071 2 15.110637715185515 4.3619547150008406 2 16.532704274284509 1.3300000000000003 2 25.503715487683674 2.3738209852307759 2 27.603835627571982 1.3300000000000003 2 29.170433255354151 4.7224926607363145 2 31.423155204694364 1.3300000000000003 2 33.754084905031483 2.6064044288679962 2 37.621726945761196 1.9045569962898765 2 41.709944873684378 1.9179698157361558 2 43.453574126970231 2.9039759820241779 2 48.206284038419426 2.8419091276889605 2 50.111798438749112 1.3300000000000003 2 53.555425043062201 2.6734513783696068 2 58.571582313415917 3.2458784288719373 2 62.045365829385396 1.3359240011810449 2 65.172044131471168 3.1096378095455948 2 69.836105030075601 2.2894088720337438 2 71.363404627155816 1.03 2 74.65126391799744 2.8025569902519329 2 76.627739650088159 1.3300000000000003 2 77.490167885747809 3.4971171632334337 2 86.575864628727189 2.6350629903407112 2 89.474069387175632 2.7113144289044855 2 91.419162631359697 1.3300000000000003 2 95.255326016909621 2.8506437758030532 2 98.859676506919072 1.03 2 1.03 1.03 2 3.0417589933572775 1.03 2 6.7044021222001051 5.2883099460618368 2 12.92979288917504 1.03 2 14.465339892615864 2.4380107878640116 2 26.273330145446366 4.2607225481076787 2 29.510633479976882 2.7203223004407855 2 39.720386630178801 1.03 2 42.159848545915168 4.5211265607184838 2 46.542300545820609 3.9617758277684709 2 55.041751971760789 4.0374656990884574 2 56.963639150069312 1.9508312312852429 2 67.224679503996697 3.2391899712955801 2 69.025720636010206 4.2579449295178371 2 72.668633526649472 2.7155116010760687 2 73.579107375275626 4.5159293167320262 2 76.002811379212645 4.9282700911698631 2 86.290034524144275 4.6712199766234335 2 88.333995018416545 4.397173511314981 2 96.869853829450278 1.5696377111234723 2 98.97 3.0870706628192282 2 </DataArray>
<DataArray Name="forces" NumberOfComponents="3" format="ascii" type="Float32">0.0 0.0 0.0 0.026897257529455505 0.011647917469262432 0.0 -0.0032981987524242913 -0.012461876190758591 0.0 -0.018564313650838941 0.0016491316019230729 0.0 0.0022667154995380072 0.0077996116431321965 0.0 0.0 0.0 0.0 -0.0031148084066651757 -0.0062330334276876568 0.0 0.0056524796889361167 0.01606217563213035 0.0 -0.0066466847710571764 -0.014948073142813875 0.0 -0.00069058735656196007 0.0040355912011444334 0.0 0.0068769391660943209 -0.023368416597082609 0.0 0.01459273100898761 0.0079595213851360105 0.0 0.069286277651224651 0.028820628867702883 0.0 0.074837131611699137 0.035168597843365117 0.0 0.0 0.0 0.0 -0.046876805123390299 0.038323635751665079 0.0 0.046876805123390299 -0.038323635751665079 0.0 0.024143643373154056 0.034417800091015242 0.0 0.0 0.0 0.0 -0.0015829354591837485 0.00019556495558523698 0.0 0.00064137840599575011 0.0018209745698316549 0.0 0.015652084331144043 -0.037892450041077795 0.0 -0.052296410275520705 -0.071353305518741111 0.0 -0.070332092410020641 0.05501634029184304 0.0 0.070332092410020641 -0.05501634029184304 0.0 -0.0060600025315948733 -0.0080412690818247468 0.0 0.012756110398346898 0.017163453631468796 0.0 -0.017097414438603804 0.012286092414760129 0.0 0.017097414438603804 -0.012286092414760129 0.0 0.0 0.0 0.0 -4.2905814902762238e-06 -8.0001358401585044e-05 0.0 -0.051328509564930069 0.0 0.0 0.0023105986254073618 -0.013733125859186736 0.0 0.0057625065599913794 0.016590745268556372 0.0 -0.016534223877220616 -0.022124647875473587 0.0 0.016070107653984984 0.021072357838636521 0.0 0.00061097440197994772 0.0015002705365035869 0.0 -0.005610585501812905 0.02220509119767947 0.0 -0.074837131611699137 -0.035168597843365117 0.0 0.0 0.0 0.0 0.0 0.0 0.0 0.0 0.0 0.0 0.0015838801530230436 0.0006899096564285098 0.0 -0.0016882252841784837 -0.00089706205798846007 0.0 -0.013963859046965559 0.038789512099066253 0.0 0.052296410275520705 0.071353305518741111 0.0 0.0 0.0 0.0 -0.0054095194204295651 0.0051380541603649283 0.0 -0.0013335141360139458 0.00017879251406157298 0.0 0.0013335141360139458 -0.00017879251406157298 0.0 0.0 0.0 0.0 4.2905814902762238e-06 8.0001358401585044e-05 0.0 </DataArray>
<DataArray Name="radii" format="ascii" type="Float32">1.03 1.03 1.03 1.3300000000000003 1.03 1.03 1.3300000000000003 1.03 1.3300000000000003 1.03 1.3300000000000003 1.3300000000000003 1.3300000000000003 1.03 1.03 1.03 1.3300000000000003 1.03 1.03 1.3300000000000003 1.03 1.03 1.03 1.03 1.3300000000000003 1.03 1.03 1.03 1.3300000000000003 1.03 1.03 1.03 1.03 1.03 1.03 1.03 1.03 1.03 1.03 1.03 1.03 1.03 1.03 1.03 1.03 1.03 1.03 1.03 1.03 1.03 1.03 1.03 </DataArray>
</PointData>
<CellData/>
</Piece>
</UnstructuredGrid>
</VTKFile>
