<?xml version="1.0" ?>
<VTKFile byte_order="LittleEndian" type="UnstructuredGrid" version="0.1">
<UnstructuredGrid>
<Piece NumberOfCells="0" NumberOfPoints="23">
<Points>
<DataArray NumberOfComponents="3" format="ascii" type="Float32">11.116131874639805 1.1001577886703591 2 19.44768471830487 3.0983095640963905 2 20.118889565172552 1 2 21.941209810251383 2.2325419749960478 2 23.763545202295944 1 2 35.055468287379341 1 2 44.190723022671577 1 2 46.2882778648735 1.1023618728680034 2 52.54402272327183 1 2 54.747176677897023 1.1 2 58.894551978622353 1.1000150341226909 2 64.763306194180942 1.1 2 67.674904105028347 1 2 80.836282308904288 1.4000000000000004 2 83.760169754563606 1.4000000000000004 2 86.018438732104002 1 2 88.074831305209244 1 2 94.195619755317935 1.1 2 78.962963092603033 5.1874236788077557 2 82.553539984327884 6.6119284357813566 2 78.170423186285177 1.4000000000000004 2 83.949220639791761 4.1920432357912158 2 81.14660766493752 4.1943117788703308 2 </DataArray>
</Points>
<Cells>
<DataArray Name="connectivity" format="ascii" type="Int32">0</DataArray>
<DataArray Name="offsets" format="ascii" type="Int32">0</DataArray>
<DataArray Name="types" format="ascii" type="UInt8">1</DataArray>
</Cells>
<PointData>
<DataArray Name="Points" NumberOfComponents="3" format="ascii" type="Float32">11.116131874639805 1.1001577886703591 2 19.44768471830487 3.0983095640963905 2 20.118889565172552 1 2 21.941209810251383 2.2325419749960478 2 23.763545202295944 1 2 35.055468287379341 1 2 44.190723022671577 1 2 46.2882778648735 1.1023618728680034 2 52.54402272327183 1 2 54.747176677897023 1.1 2 58.894551978622353 1.1000150341226909 2 64.763306194180942 1.1 2 67.674904105028347 1 2 80.836282308904288 1.4000000000000004 2 83.760169754563606 1.4000000000000004 2 86.018438732104002 1 2 88.074831305209244 1 2 94.195619755317935 1.1 2 78.962963092603033 5.1874236788077557 2 82.553539984327884 6.6119284357813566 2 78.170423186285177 1.4000000000000004 2 83.949220639791761 4.1920432357912158 2 81.14660766493752 4.1943117788703308 2 </DataArray>
<DataArray Name="forces" NumberOfComponents="3" format="ascii" type="Float32">0.0010724852586029754 3.5339315316488911e-05 0.0 0.0 0.0 0.0 0.0 0.0 0.0 0.0 0.0 0.0 -9.6923171389540925e-07 -1.4510462743453975e-06 0.0 0.0 0.0 0.0 0.0 0.0 0.0 0.0 0.0 0.0 0.00033018696647285444 -0.0002963241539140216 0.0 0.0 0.0 0.0 0.0 0.0 0.0 0.0 0.0 0.0 0.0 0.0 0.0 -0.078523738668743154 -0.0071305787003549037 0.0 0.077059096572711566 -0.0089868561653621906 0.0 -0.040300833793112119 -0.0093339253364248774 0.0 0.031500532171924139 -0.0083249026042941099 0.0 0.0 0.0 0.0 0.0 0.0 0.0 -0.0010058433988672105 0.0017540897850652974 0.0 0.072978565066277659 -0.024247599066656092 0.0 0.0019522716307860083 0.0074157461241277037 0.0 0.00051821386411278578 0.0069475989565240927 0.0 </DataArray>
<DataArray Name="radii" format="ascii" type="Float32">1.1 1.1 1 1.2000000000000002 1 1 1 1.1 1 1.1 1.1 1.1 1 1.4000000000000004 1.4000000000000004 1 1 1.1 1 1.4000000000000004 1.4000000000000004 1.4000000000000004 1.4000000000000004 </DataArray>
</PointData>
<CellData/>
</Piece>
</UnstructuredGrid>
</VTKFile>
