<?xml version="1.0" ?>
<VTKFile byte_order="LittleEndian" type="UnstructuredGrid" version="0.1">
<UnstructuredGrid>
<Piece NumberOfCells="0" NumberOfPoints="29">
<Points>
<DataArray NumberOfComponents="3" format="ascii" type="Float32">11.284301876461411 1.1 2 19.89670047240946 3.5526134697762157 2 20.39729273985018 1 2 22.029186796232494 2.4632170720600732 2 23.671935718897299 1 2 34.912654004112042 1 2 44.467179645575328 1 2 46.563928509434959 1.1167979445349625 2 52.411153480645176 1 2 54.508817944375728 1.1 2 58.612821227856784 1.1 2 65.136330310172625 1.1 2 67.321073961993605 1 2 82.126913402164277 1.3000000000000003 2 84.733975956783226 1.3027007822176162 2 87.001904796974912 1 2 89.004668060272152 1 2 93.590971453854081 1.1 2 78.187691663672851 7.0644822022151263 2 82.226155414877766 8.5842988896245824 2 77.87661892186415 2.3540305563482047 2 84.908220171285635 4.9609415279087328 2 79.86511306758328 5.4749370016870751 2 80.179210633262528 2.4863777958704851 2 83.428534103865218 3.2048044892029135 2 82.528631883680447 6.007067870325387 2 76.054033071565954 1 2 84.630475763588379 7.5467321618341865 2 81.558663819043517 3.9189649514485243 2 </DataArray>
</Points>
<Cells>
<DataArray Name="connectivity" format="ascii" type="Int32">0</DataArray>
<DataArray Name="offsets" format="ascii" type="Int32">0</DataArray>
<DataArray Name="types" format="ascii" type="UInt8">1</DataArray>
</Cells>
<PointData>
<DataArray Name="Points" NumberOfComponents="3" format="ascii" type="Float32">11.284301876461411 1.1 2 19.89670047240946 3.5526134697762157 2 20.39729273985018 1 2 22.029186796232494 2.4632170720600732 2 23.671935718897299 1 2 34.912654004112042 1 2 44.467179645575328 1 2 46.563928509434959 1.1167979445349625 2 52.411153480645176 1 2 54.508817944375728 1.1 2 58.612821227856784 1.1 2 65.136330310172625 1.1 2 67.321073961993605 1 2 82.126913402164277 1.3000000000000003 2 84.733975956783226 1.3027007822176162 2 87.001904796974912 1 2 89.004668060272152 1 2 93.590971453854081 1.1 2 78.187691663672851 7.0644822022151263 2 82.226155414877766 8.5842988896245824 2 77.87661892186415 2.3540305563482047 2 84.908220171285635 4.9609415279087328 2 79.86511306758328 5.4749370016870751 2 80.179210633262528 2.4863777958704851 2 83.428534103865218 3.2048044892029135 2 82.528631883680447 6.007067870325387 2 76.054033071565954 1 2 84.630475763588379 7.5467321618341865 2 81.558663819043517 3.9189649514485243 2 </DataArray>
<DataArray Name="forces" NumberOfComponents="3" format="ascii" type="Float32">0.1426530344815915 -0.005343437818072911 0.0 0.016634043586220278 0.019051148148650606 0.0 0.028738832430927827 -0.012258754342006703 0.0 -0.00067774152266368885 0.00060381721647097242 0.0 0.00067256478022491555 -0.00061577207386016104 0.0 2.3130407355464041e-05 -3.7101454081471256e-06 0.0 3.1212543812893567e-06 -1.1665894060951206e-06 0.0 0.0 0.0 0.0 -0.00019243516556325752 -9.1748301718925153e-06 0.0 0.00021799477559535864 -3.610301450114632e-05 0.0 0.0006135633275162122 -0.00038919016217263289 0.0 0.0 0.0 0.0 0.0 0.0 0.0 -0.027923588180041689 -0.0064508428784737226 0.0 0.024599355563852711 -0.0014282311253296816 0.0 -0.016472419047133258 0.0 0.0 0.016472419047133258 0.0 0.0 -2.7246551348276008e-05 -2.5905510415949733e-06 0.0 0.0 0.0 0.0 0.0 0.0 0.0 -0.044594112057707788 -0.019055189122295351 0.0 -0.0051055436403308792 -0.0026227592629771024 0.0 0.0 0.0 0.0 0.048523916765866079 0.0025837891302124424 0.0 0.0086369488432651732 0.0058116490138991929 0.0 0.0054652749818795039 0.011809964045112128 0.0 0.041050661596696687 -0.0046656166711936432 0.0 -0.00013962126273711596 0.0012853041813398051 0.0 -0.010777991208955701 -0.0097425390552079178 0.0 </DataArray>
<DataArray Name="radii" format="ascii" type="Float32">1.1 1.1 1 1.2000000000000002 1 1 1 1.1 1 1.1 1.1 1.1 1 1.3000000000000003 1.3000000000000003 1 1 1.1 1 1.3000000000000003 1.3000000000000003 1.3000000000000003 1.3000000000000003 1 1 1.3000000000000003 1 1.3000000000000003 1 </DataArray>
</PointData>
<CellData/>
</Piece>
</UnstructuredGrid>
</VTKFile>
