<?xml version="1.0" ?>
<VTKFile byte_order="LittleEndian" type="UnstructuredGrid" version="0.1">
<UnstructuredGrid>
<Piece NumberOfCells="0" NumberOfPoints="20">
<Points>
<DataArray NumberOfComponents="3" format="ascii" type="Float32">9.7493102774284708 1.1 2 18.575906002983512 2.3915803875826875 2 20.146211395082066 1 2 22.100128808421495 2.015485834437595 2 24.048570851833126 1 2 35.619986769448559 1 2 44.137789666165368 1 2 46.239373532833277 1.1 2 52.296211971528578 1 2 55.749851195008418 1.1 2 59.763196985458023 1.1 2 64.486956046797758 1.1 2 67.674904105028347 1 2 79.274942894145823 1.3000000000000003 2 82.909603801647975 1.3000000000000003 2 85.177965544255656 1 2 87.887968981660435 1 2 93.653340510415262 1.1 2 79.614978028090817 3.5755333211571738 2 81.892909002578847 3.6965987690022377 2 </DataArray>
</Points>
<Cells>
<DataArray Name="connectivity" format="ascii" type="Int32">0</DataArray>
<DataArray Name="offsets" format="ascii" type="Int32">0</DataArray>
<DataArray Name="types" format="ascii" type="UInt8">1</DataArray>
</Cells>
<PointData>
<DataArray Name="Points" NumberOfComponents="3" format="ascii" type="Float32">9.7493102774284708 1.1 2 18.575906002983512 2.3915803875826875 2 20.146211395082066 1 2 22.100128808421495 2.015485834437595 2 24.048570851833126 1 2 35.619986769448559 1 2 44.137789666165368 1 2 46.239373532833277 1.1 2 52.296211971528578 1 2 55.749851195008418 1.1 2 59.763196985458023 1.1 2 64.486956046797758 1.1 2 67.674904105028347 1 2 79.274942894145823 1.3000000000000003 2 82.909603801647975 1.3000000000000003 2 85.177965544255656 1 2 87.887968981660435 1 2 93.653340510415262 1.1 2 79.614978028090817 3.5755333211571738 2 81.892909002578847 3.6965987690022377 2 </DataArray>
<DataArray Name="forces" NumberOfComponents="3" format="ascii" type="Float32">-0.0035126038703433221 -0.0017945732300663523 0.0 -0.00086043451690485375 0.0014454061587401345 0.0 -0.0021785459698426719 -0.0030188393503187282 0.0 0.0035206042160965253 0.0018318024055308244 0.0 -0.0020998743973923888 -0.0022266866883827062 0.0 -0.098125305244007435 -0.012620123518168188 0.0 0.0 0.0 0.0 -0.0013021221552837103 -0.0014462136722089816 0.0 0.0051130022935032722 -0.00061391528087776704 0.0 -0.0012355676319963443 -0.0016091477406998929 0.0 -0.014301265704679933 -0.0015461495597517499 0.0 -0.0047468953353319229 -0.0051075242923097281 0.0 -0.0004756691114465464 -0.00073361023409079828 0.0 -0.00084327512005958716 -0.0061592606166797252 0.0 0.0074785379267802553 -0.017761894321895406 0.0 -0.013974681840672338 -0.02302929247000865 0.0 0.0 0.0 0.0 -0.068557512899769232 -0.040590072046482295 0.0 0.027506976062217383 0.0028954166287848502 0.0 -0.0074785379267802553 0.017761894321895406 0.0 </DataArray>
<DataArray Name="radii" format="ascii" type="Float32">1.1 1.1 1 1.2000000000000002 1 1 1 1.1 1 1.1 1.1 1.1 1 1.3000000000000003 1.3000000000000003 1 1 1.1 1 1.3000000000000003 </DataArray>
</PointData>
<CellData/>
</Piece>
</UnstructuredGrid>
</VTKFile>
