<?xml version="1.0" ?>
<VTKFile byte_order="LittleEndian" type="UnstructuredGrid" version="0.1">
<UnstructuredGrid>
<Piece NumberOfCells="0" NumberOfPoints="18">
<Points>
<DataArray NumberOfComponents="3" format="ascii" type="Float32">10.0 1 2 18.0 1 2 20.0 1 2 22.0 1 2 24.0 1 2 36.0 1 2 44.0 1 2 46.0 1 2 52.0 1 2 56.0 1 2 60.0 1 2 64.0 1 2 68.0 1 2 80.0 1 2 82.0 1 2 84.0 1 2 88.0 1 2 94.0 1 2 </DataArray>
</Points>
<Cells>
<DataArray Name="connectivity" format="ascii" type="Int32">0</DataArray>
<DataArray Name="offsets" format="ascii" type="Int32">0</DataArray>
<DataArray Name="types" format="ascii" type="UInt8">1</DataArray>
</Cells>
<PointData>
<DataArray Name="Points" NumberOfComponents="3" format="ascii" type="Float32">10.0 1 2 18.0 1 2 20.0 1 2 22.0 1 2 24.0 1 2 36.0 1 2 44.0 1 2 46.0 1 2 52.0 1 2 56.0 1 2 60.0 1 2 64.0 1 2 68.0 1 2 80.0 1 2 82.0 1 2 84.0 1 2 88.0 1 2 94.0 1 2 </DataArray>
<DataArray Name="forces" NumberOfComponents="3" format="ascii" type="Float32">0.0 0.0 0.0 0.0 0.0 0.0 0.0 0.0 0.0 0.0 0.0 0.0 0.0 0.0 0.0 0.0 0.0 0.0 0.0 0.0 0.0 0.0 0.0 0.0 0.0 0.0 0.0 0.0 0.0 0.0 0.0 0.0 0.0 0.0 0.0 0.0 0.0 0.0 0.0 0.0 0.0 0.0 0.0 0.0 0.0 0.0 0.0 0.0 0.0 0.0 0.0 0.0 0.0 0.0 </DataArray>
<DataArray Name="radii" format="ascii" type="Float32">1 1 1 1 1 1 1 1 1 1 1 1 1 1 1 1 1 1 </DataArray>
</PointData>
<CellData/>
</Piece>
</UnstructuredGrid>
</VTKFile>
