<?xml version="1.0" ?>
<VTKFile byte_order="LittleEndian" type="UnstructuredGrid" version="0.1">
<UnstructuredGrid>
<Piece NumberOfCells="0" NumberOfPoints="31">
<Points>
<DataArray NumberOfComponents="3" format="ascii" type="Float32">1.32 1.32 2 3.9698374242942593 1.32 2 5.9533502107548895 3.0452931952580227 2 7.5449472241463056 1.1503146059852984 2 12.226792114056471 1.32 2 14.491296296076483 2.689175485760309 2 16.431098349944047 1.1500000000000001 2 25.860847922447764 2.5076716760729734 2 27.924334333834075 1.1500000000000001 2 29.636209423475886 2.9324617446555283 2 31.318512088448042 1.1500000000000001 2 33.652956974703365 1.5144904856444943 2 37.968930763800827 1.1620897274069639 2 40.345461047980265 1.32 2 42.644404272339976 2.7560011994739511 2 48.08823134792177 2.6758187841563696 2 50.033332002694429 1.1505934182725193 2 53.872237873691716 2.5930985943784584 2 57.817486231120739 2.4097832388892395 2 62.111156239293877 1.1537064749288017 2 66.171906856216097 2.716297287635983 2 69.514818879204327 2.4864785601152333 2 71.887091702539834 1.32 2 74.239339782180807 2.5265915676488411 2 76.291520958341167 1.1500000000000001 2 77.437463246225718 3.3501521156849039 2 86.37329532900435 2.7371048047165223 2 89.508756410135888 2.674744819656695 2 91.584873852912722 1.1500000000000001 2 96.191923080037384 1.8542904420887312 2 98.68 1.32 2 </DataArray>
</Points>
<Cells>
<DataArray Name="connectivity" format="ascii" type="Int32">0</DataArray>
<DataArray Name="offsets" format="ascii" type="Int32">0</DataArray>
<DataArray Name="types" format="ascii" type="UInt8">1</DataArray>
</Cells>
<PointData>
<DataArray Name="Points" NumberOfComponents="3" format="ascii" type="Float32">1.32 1.32 2 3.9698374242942593 1.32 2 5.9533502107548895 3.0452931952580227 2 7.5449472241463056 1.1503146059852984 2 12.226792114056471 1.32 2 14.491296296076483 2.689175485760309 2 16.431098349944047 1.1500000000000001 2 25.860847922447764 2.5076716760729734 2 27.924334333834075 1.1500000000000001 2 29.636209423475886 2.9324617446555283 2 31.318512088448042 1.1500000000000001 2 33.652956974703365 1.5144904856444943 2 37.968930763800827 1.1620897274069639 2 40.345461047980265 1.32 2 42.644404272339976 2.7560011994739511 2 48.08823134792177 2.6758187841563696 2 50.033332002694429 1.1505934182725193 2 53.872237873691716 2.5930985943784584 2 57.817486231120739 2.4097832388892395 2 62.111156239293877 1.1537064749288017 2 66.171906856216097 2.716297287635983 2 69.514818879204327 2.4864785601152333 2 71.887091702539834 1.32 2 74.239339782180807 2.5265915676488411 2 76.291520958341167 1.1500000000000001 2 77.437463246225718 3.3501521156849039 2 86.37329532900435 2.7371048047165223 2 89.508756410135888 2.674744819656695 2 91.584873852912722 1.1500000000000001 2 96.191923080037384 1.8542904420887312 2 98.68 1.32 2 </DataArray>
<DataArray Name="forces" NumberOfComponents="3" format="ascii" type="Float32">-0.0053953534151145455 0.0 0.0 0.0052433211443687604 -0.00013123243242130767 0.0 0.00015203227074578522 0.00013123243242130767 0.0 0.0 0.0 0.0 0.0 0.0 0.0 0.0 0.0 0.0 0.0 0.0 0.0 0.0 0.0 0.0 0.0 0.0 0.0 0.0 0.0 0.0 -0.013071552575332886 -0.0020746873035383637 0.0 0.013071552575332886 0.0020746873035383637 0.0 0.034421306766277845 0.0025247960135086475 0.0 -0.014426080558627414 -0.0091475878985345007 0.0 0.014426080558627414 0.0091475878985345007 0.0 0.0 0.0 0.0 0.0 0.0 0.0 0.00034701711073172276 0.00032754693273169604 0.0 0.0 0.0 0.0 0.0 0.0 0.0 0.0 0.0 0.0 0.0 0.0 0.0 0.0 0.0 0.0 0.0 0.0 0.0 0.0 0.0 0.0 0.0 0.0 0.0 -0.0010614803046614786 0.0011954734380628417 0.0 -0.022139854246116013 0.016753944213993125 0.0 0.022139854246116013 -0.016753944213993125 0.0 0.029339361229960566 0.020218899716912687 0.0 0.022729893819043209 -0.0042005083745403158 0.0 </DataArray>
<DataArray Name="radii" format="ascii" type="Float32">1.32 1.32 1.32 1.1500000000000001 1.32 1.32 1.1500000000000001 1.32 1.1500000000000001 1.32 1.1500000000000001 1.1500000000000001 1.1500000000000001 1.32 1.32 1.32 1.1500000000000001 1.32 1.32 1.1500000000000001 1.32 1.32 1.32 1.32 1.1500000000000001 1.32 1.32 1.32 1.1500000000000001 1.32 1.32 </DataArray>
</PointData>
<CellData/>
</Piece>
</UnstructuredGrid>
</VTKFile>
