<?xml version="1.0" ?>
<VTKFile byte_order="LittleEndian" type="UnstructuredGrid" version="0.1">
<UnstructuredGrid>
<Piece NumberOfCells="0" NumberOfPoints="37">
<Points>
<DataArray NumberOfComponents="3" format="ascii" type="Float32">12.364470491723489 1.1000023395028034 2 20.727677693084033 5.0161100576932593 2 21.023474234974735 1 2 22.118091503753678 2.9292728560702974 2 23.175239662454523 1 2 35.226571193990132 1 2 44.546877902737158 1 2 46.644256009755985 1.1 2 51.623308103589245 1 2 53.715247041580007 1.1 2 58.019658756505962 1.1 2 65.565787369729861 1.1 2 67.643275377104189 1 2 80.409086601243487 1.3000000000000003 2 84.896760994413114 1.3125480626420436 2 87.202934698279748 1 2 89.108356055871667 1 2 93.862049604292224 1.1 2 77.451335826673002 9.5197781503309535 2 82.644450054296613 10.313943911548893 2 77.926339717343481 1.3000000000000003 2 85.395447553412993 5.4705402355114607 2 78.833077631250248 7.7005573040935156 2 79.160611902929546 3.4594655371200442 2 84.208153939338033 3.4926575445948576 2 81.390138596976115 8.0278714886725613 2 75.600436563554865 1 2 85.25864852188765 10.264210589297308 2 82.89911938493681 5.7411157056044626 2 81.91658042614776 3.4654123354254356 2 82.72676089132662 1 2 80.198270164384979 10.425767522104426 2 76.640527256574529 3.5678582098999851 2 87.66226649878098 5.7562965893345179 2 80.410270533879185 5.6271500200836542 2 84.002254297955545 7.9990016976222273 2 86.582936897718625 7.7817190522932584 2 </DataArray>
</Points>
<Cells>
<DataArray Name="connectivity" format="ascii" type="Int32">0</DataArray>
<DataArray Name="offsets" format="ascii" type="Int32">0</DataArray>
<DataArray Name="types" format="ascii" type="UInt8">1</DataArray>
</Cells>
<PointData>
<DataArray Name="Points" NumberOfComponents="3" format="ascii" type="Float32">12.364470491723489 1.1000023395028034 2 20.727677693084033 5.0161100576932593 2 21.023474234974735 1 2 22.118091503753678 2.9292728560702974 2 23.175239662454523 1 2 35.226571193990132 1 2 44.546877902737158 1 2 46.644256009755985 1.1 2 51.623308103589245 1 2 53.715247041580007 1.1 2 58.019658756505962 1.1 2 65.565787369729861 1.1 2 67.643275377104189 1 2 80.409086601243487 1.3000000000000003 2 84.896760994413114 1.3125480626420436 2 87.202934698279748 1 2 89.108356055871667 1 2 93.862049604292224 1.1 2 77.451335826673002 9.5197781503309535 2 82.644450054296613 10.313943911548893 2 77.926339717343481 1.3000000000000003 2 85.395447553412993 5.4705402355114607 2 78.833077631250248 7.7005573040935156 2 79.160611902929546 3.4594655371200442 2 84.208153939338033 3.4926575445948576 2 81.390138596976115 8.0278714886725613 2 75.600436563554865 1 2 85.25864852188765 10.264210589297308 2 82.89911938493681 5.7411157056044626 2 81.91658042614776 3.4654123354254356 2 82.72676089132662 1 2 80.198270164384979 10.425767522104426 2 76.640527256574529 3.5678582098999851 2 87.66226649878098 5.7562965893345179 2 80.410270533879185 5.6271500200836542 2 84.002254297955545 7.9990016976222273 2 86.582936897718625 7.7817190522932584 2 </DataArray>
<DataArray Name="forces" NumberOfComponents="3" format="ascii" type="Float32">-0.00021690426090709955 4.0178381654276654e-06 0.0 4.612829618595569e-06 8.5468867602222086e-06 0.0 0.0 0.0 0.0 1.7356448995451731e-05 2.8232158865214058e-05 0.0 -0.00020254010997016857 -0.00011863758302480423 0.0 6.7804379791086252e-05 -1.0575179723258748e-05 0.0 0.00027324210772858374 -7.9629434519249615e-06 0.0 -0.0010280004632002295 -0.00010930888797792764 0.0 0.0 0.0 0.0 -0.016557708040916639 -0.00060526036483718329 0.0 -0.030221237051171093 -0.0032533493835665843 0.0 0.033291219695323872 -0.0072465656467640693 0.0 -0.023380314941300925 -0.019039114343519563 0.0 -0.17941297483196697 -0.018051883949850966 0.0 -0.15587632165977719 0.0047112909088565594 0.0 0.14521548288536917 -0.021112870527850658 0.0 -0.12345445601516007 -0.020149185591732822 0.0 -0.031575142986292035 -0.032606950255523334 0.0 0.010462229644288126 -0.0040506571161584943 0.0 0.0051538467532083907 0.0094887775679078357 0.0 0.17173897632149923 -0.072827283353211425 0.0 0.02635203289229875 0.0089202902250763907 0.0 0.023519497150398246 0.045003316986516675 0.0 -0.0076467000360737579 -0.023680305217390802 0.0 -0.0066622098457323857 -0.011214192018880874 0.0 -0.026629006016289421 -0.0091013236353635809 0.0 -0.12471112818349879 -0.017374993416751933 0.0 -0.0019492345104305986 0.00029357958086382544 0.0 -0.030000820776964518 -0.019294221486238786 0.0 0.025759585435199798 0.039757030338113945 0.0 0.15365338939676718 -0.021705146388262979 0.0 0.0 0.0 0.0 -0.0529918074373164 0.090302779501591185 0.0 -0.024231807322981587 0.0020905764480409787 0.0 0.015513938248999859 0.021101834936588893 0.0 0.031786156993479184 0.021200669347499011 0.0 -0.0023112697388825757 -0.0048837337806356971 0.0 </DataArray>
<DataArray Name="radii" format="ascii" type="Float32">1.1 1.1 1 1.2000000000000002 1 1 1 1.1 1 1.1 1.1 1.1 1 1.3000000000000003 1.3000000000000003 1 1 1.1 1 1.3000000000000003 1.3000000000000003 1.3000000000000003 1.3000000000000003 1.2000000000000002 1 1.3000000000000003 1 1.3000000000000003 1.2000000000000002 1.3000000000000003 1 1 1.3000000000000003 1 1.3000000000000003 1.3000000000000003 1.3000000000000003 </DataArray>
</PointData>
<CellData/>
</Piece>
</UnstructuredGrid>
</VTKFile>
