<?xml version="1.0" ?>
<VTKFile byte_order="LittleEndian" type="UnstructuredGrid" version="0.1">
<UnstructuredGrid>
<Piece NumberOfCells="0" NumberOfPoints="23">
<Points>
<DataArray NumberOfComponents="3" format="ascii" type="Float32">11.089575205937743 1.1010813949408091 2 19.408494442011541 3.0657542641736297 2 20.121828921449421 1 2 21.951513764526215 2.2216519563066912 2 23.781282784929267 1 2 35.055468287379341 1 2 44.190723022671577 1 2 46.2882778648735 1.1023618728680034 2 52.522993811766426 1 2 54.78507762270528 1.1 2 58.917292136674995 1.1015217489591353 2 64.729081478749393 1.1 2 67.674904105028347 1 2 80.864932903830123 1.3000000000000003 2 83.425047732499834 1.3000000000000003 2 85.733008181653005 1 2 87.962501759676243 1 2 94.135383263624888 1.1 2 79.2007499034072 4.895773397475863 2 82.470645329058442 6.1666336986400969 2 78.204578835437957 1.3862801212667204 2 83.862091494775655 3.8705137891543777 2 81.255661813958966 3.8638219579381237 2 </DataArray>
</Points>
<Cells>
<DataArray Name="connectivity" format="ascii" type="Int32">0</DataArray>
<DataArray Name="offsets" format="ascii" type="Int32">0</DataArray>
<DataArray Name="types" format="ascii" type="UInt8">1</DataArray>
</Cells>
<PointData>
<DataArray Name="Points" NumberOfComponents="3" format="ascii" type="Float32">11.089575205937743 1.1010813949408091 2 19.408494442011541 3.0657542641736297 2 20.121828921449421 1 2 21.951513764526215 2.2216519563066912 2 23.781282784929267 1 2 35.055468287379341 1 2 44.190723022671577 1 2 46.2882778648735 1.1023618728680034 2 52.522993811766426 1 2 54.78507762270528 1.1 2 58.917292136674995 1.1015217489591353 2 64.729081478749393 1.1 2 67.674904105028347 1 2 80.864932903830123 1.3000000000000003 2 83.425047732499834 1.3000000000000003 2 85.733008181653005 1 2 87.962501759676243 1 2 94.135383263624888 1.1 2 79.2007499034072 4.895773397475863 2 82.470645329058442 6.1666336986400969 2 78.204578835437957 1.3862801212667204 2 83.862091494775655 3.8705137891543777 2 81.255661813958966 3.8638219579381237 2 </DataArray>
<DataArray Name="forces" NumberOfComponents="3" format="ascii" type="Float32">-0.017759309183849915 -0.00038402046690488227 0.0 0.0 0.0 0.0 0.0 0.0 0.0 0.0 0.0 0.0 0.0 0.0 0.0 0.0 0.0 0.0 0.0 0.0 0.0 0.0 0.0 0.0 0.0 0.0 0.0 0.0 0.0 0.0 0.0 0.0 0.0 -4.1886514678883618e-06 -3.4244643729666827e-05 0.0 0.0 0.0 0.0 0.025295268833211711 -0.00083401841322628051 0.0 -0.011621611760153781 -0.0035612352640200158 0.0 0.010817707957517183 -0.0014300659587092629 0.0 -0.00049070402997995494 -0.00070149417480281045 0.0 0.00071904702489888244 -0.00030394968481928719 0.0 0.0 0.0 0.0 0.00043193620218823388 0.00082071855157828382 0.0 -0.025295268833211711 0.00083401841322628051 0.0 0.0025669506708827401 0.0049890603738148012 0.0 -0.0021949830704343755 -0.00081847770266380623 0.0 </DataArray>
<DataArray Name="radii" format="ascii" type="Float32">1.1 1.1 1 1.2000000000000002 1 1 1 1.1 1 1.1 1.1 1.1 1 1.3000000000000003 1.3000000000000003 1 1 1.1 1 1.3000000000000003 1.3000000000000003 1.3000000000000003 1.3000000000000003 </DataArray>
</PointData>
<CellData/>
</Piece>
</UnstructuredGrid>
</VTKFile>
