<?xml version="1.0" ?>
<VTKFile byte_order="LittleEndian" type="UnstructuredGrid" version="0.1">
<UnstructuredGrid>
<Piece NumberOfCells="0" NumberOfPoints="50">
<Points>
<DataArray NumberOfComponents="3" format="ascii" type="Float32">12.449077124227831 1.1 2 21.048615061918429 5.4030467755683471 2 20.768770463736132 1 2 21.758512140663974 2.9801221625432097 2 22.783282283830811 1 2 35.688010662103764 1 2 44.41236867414753 1 2 46.40978000070389 1.1 2 51.542032238206943 1 2 53.691068967064929 1.1024453054941847 2 58.141464489669488 1.1 2 65.538214743459406 1.1 2 67.597846854779561 1 2 80.993201701173334 1 2 84.514201581856284 2.2509126902863907 2 87.972875932974546 1 2 89.810541846344336 1 2 94.312124122662439 1.1 2 77.097497489574749 11.112175113781687 2 82.884993439777077 11.456366925901786 2 78.243851935484102 1 2 85.399962207806084 5.7342122732265786 2 78.642622085416065 9.5834808925456496 2 78.548035888328087 4.6973361193414869 2 84.144808212461271 4.3029381927757848 2 80.553186005313705 10.136194844656943 2 75.421833838510494 1 2 86.566605028916058 11.857912744933849 2 83.146271048410313 6.4747399464279711 2 81.1245156570902 4.163194548526354 2 83.022414482641906 1 2 79.241956635683849 11.639880730508718 2 75.292244235802329 3.5827611868206661 2 88.849200108838872 7.18539444349513 2 79.721583847767917 7.8844090230917345 2 83.953859774892194 9.0556464967049948 2 87.610287243649111 9.666100824926998 2 79.640030325751269 2.364505793920932 2 85.900126282179514 1 2 82.89897418179703 13.465205087388044 2 76.787246061963017 2.4305173831212445 2 87.473730996055195 5.8152072699838211 2 76.699895869829462 9.0553074729181233 2 81.928124597731227 8.7858174033633514 2 84.695272976687789 12.585824256172154 2 82.557292894697099 2.9712683464457519 2 76.25943310208514 5.3560625276215559 2 80.599294903628376 6.1625650150428655 2 85.653952189485267 10.075438457126687 2 86.959449835640655 7.7747803262228352 2 </DataArray>
</Points>
<Cells>
<DataArray Name="connectivity" format="ascii" type="Int32">0</DataArray>
<DataArray Name="offsets" format="ascii" type="Int32">0</DataArray>
<DataArray Name="types" format="ascii" type="UInt8">1</DataArray>
</Cells>
<PointData>
<DataArray Name="Points" NumberOfComponents="3" format="ascii" type="Float32">12.449077124227831 1.1 2 21.048615061918429 5.4030467755683471 2 20.768770463736132 1 2 21.758512140663974 2.9801221625432097 2 22.783282283830811 1 2 35.688010662103764 1 2 44.41236867414753 1 2 46.40978000070389 1.1 2 51.542032238206943 1 2 53.691068967064929 1.1024453054941847 2 58.141464489669488 1.1 2 65.538214743459406 1.1 2 67.597846854779561 1 2 80.993201701173334 1 2 84.514201581856284 2.2509126902863907 2 87.972875932974546 1 2 89.810541846344336 1 2 94.312124122662439 1.1 2 77.097497489574749 11.112175113781687 2 82.884993439777077 11.456366925901786 2 78.243851935484102 1 2 85.399962207806084 5.7342122732265786 2 78.642622085416065 9.5834808925456496 2 78.548035888328087 4.6973361193414869 2 84.144808212461271 4.3029381927757848 2 80.553186005313705 10.136194844656943 2 75.421833838510494 1 2 86.566605028916058 11.857912744933849 2 83.146271048410313 6.4747399464279711 2 81.1245156570902 4.163194548526354 2 83.022414482641906 1 2 79.241956635683849 11.639880730508718 2 75.292244235802329 3.5827611868206661 2 88.849200108838872 7.18539444349513 2 79.721583847767917 7.8844090230917345 2 83.953859774892194 9.0556464967049948 2 87.610287243649111 9.666100824926998 2 79.640030325751269 2.364505793920932 2 85.900126282179514 1 2 82.89897418179703 13.465205087388044 2 76.787246061963017 2.4305173831212445 2 87.473730996055195 5.8152072699838211 2 76.699895869829462 9.0553074729181233 2 81.928124597731227 8.7858174033633514 2 84.695272976687789 12.585824256172154 2 82.557292894697099 2.9712683464457519 2 76.25943310208514 5.3560625276215559 2 80.599294903628376 6.1625650150428655 2 85.653952189485267 10.075438457126687 2 86.959449835640655 7.7747803262228352 2 </DataArray>
<DataArray Name="forces" NumberOfComponents="3" format="ascii" type="Float32">-0.0046881374417659756 -0.022190718768248872 0.0 0.00014444690784236661 6.4923286932232817e-05 0.0 -0.011749690456111706 -0.0014868741904443255 0.0 0.0079514591207165506 0.001486059823330704 0.0 0.0049472891140042701 -0.0040569203147803696 0.0 0.042036472884143514 -0.0057397137747711349 0.0 0.032759965674050123 -0.0068001143904387563 0.0 -0.017632390856336163 -0.027648858795608279 0.0 -0.028200532519105016 -0.0017602228787821021 0.0 0.029190201924283492 0.0015986309294227475 0.0 0.02424323375506517 -0.0081323752823729938 0.0 0.0087754439036193625 -0.01289149812363306 0.0 -0.013669888020248889 -0.023405451926601956 0.0 -0.014788776110914326 -0.024922069690379366 0.0 0.023018832540051874 -0.02423681896805862 0.0 0.054444909770936079 0.0 0.0 -0.043509771018378274 0.0 0.0 -0.0030011029197627328 -6.6796810335315967e-05 0.0 0.0 0.0 0.0 0.0 0.0 0.0 0.023083449241733275 -0.047247262839088339 0.0 -0.042638096595481643 -0.00155827532610824 0.0 0.0025093834348880201 0.012346383858635526 0.0 -0.066907754108865833 0.045207759898169192 0.0 0.0036533848225224919 0.065375509654090197 0.0 -0.0010576105043368345 0.0035555528622005133 0.0 0.02278916183781441 -0.0013581197091496551 0.0 0.0 0.0 0.0 0.054278600942339855 -0.036995843500763605 0.0 0.026432494519392984 -0.024450757125501738 0.0 0.030306551227383793 -0.047030771280532346 0.0 -0.00031736885813707534 0.00036481714307470305 0.0 0.0076644801832215035 -0.033050834187781722 0.0 -0.019623801918409692 0.010342952788403238 0.0 0.0088490144509320613 -0.002517724733915417 0.0 0.012188349620938769 0.0017896053338285268 0.0 -0.00051206507040351865 0.0001401108823155461 0.0 0.0098128826487848403 -0.015178538500913497 0.0 -0.036881238138847451 -0.026206784196750526 0.0 0.0 0.0 0.0 -0.028800291061273731 0.032630996872018377 0.0 0.034335812109482444 0.0046582405644106182 0.0 -0.017704557560116279 0.025267645885463954 0.0 -0.030436813208118748 0.037165664348885234 0.0 0.0 0.0 0.0 -0.038916235195316139 0.025183450396279162 0.0 0.01704134753399926 -0.013466675724124791 0.0 -0.020916626183899136 0.027260825217456562 0.0 0.0001601843085324271 0.00038623957221334694 0.0 0.0 0.0 0.0 </DataArray>
<DataArray Name="radii" format="ascii" type="Float32">1.1 1.1 1 1.2000000000000002 1 1 1 1.1 1 1.1 1.1 1.1 1 1 1 1 1 1.1 1 1 1 1 1 1.5000000000000004 1 1 1 1 1.5000000000000004 1 1 1 1 1 1 1 1 1 1 1 1 1 1 1 1 1 1 1 1 1 </DataArray>
</PointData>
<CellData/>
</Piece>
</UnstructuredGrid>
</VTKFile>
