<?xml version="1.0" ?>
<VTKFile byte_order="LittleEndian" type="UnstructuredGrid" version="0.1">
<UnstructuredGrid>
<Piece NumberOfCells="0" NumberOfPoints="52">
<Points>
<DataArray NumberOfComponents="3" format="ascii" type="Float32">2.0493330603605879 2.935211050615167 2 5.0696700177902807 1.5683630519093867 2 6.0679954027791343 3.4430329367015822 2 7.4626428041466504 1.3600000000000003 2 11.417687281435192 2.5838339510913779 2 15.15781817211875 4.4970804727281237 2 16.577832610212958 1.3600000000000003 2 25.420268041567759 2.4390491493862823 2 27.585361971215637 1.3600000000000003 2 29.141970005717095 4.8834390243588617 2 31.470714849914465 1.3600000000000003 2 33.804944325722325 2.7529384867210376 2 37.527992127298923 1.9785933778879605 2 41.704939126635516 1.9045333284730446 2 43.550872283953716 2.9659665007966307 2 48.196378113547311 2.8630906287914093 2 50.085071538016081 1.3600000000000003 2 53.531484754056024 2.7255703136449161 2 58.611549215446075 3.2782229506518457 2 62.040332921923969 1.3673163277700355 2 65.126079003964165 3.1636117892045732 2 69.689941094288741 2.3496086892107417 2 71.386246375127939 1.06 2 74.577698253406467 3.1384997702756814 2 76.196588863798709 1.3600000000000003 2 77.350962260117768 3.4062146888056453 2 86.597065228767221 2.6231976747104553 2 89.427884571630301 2.6823068550343772 2 91.454284731903158 1.3600000000000003 2 95.210048864277255 2.8869770362540401 2 98.917840680555358 1.06 2 1.06 1.06 2 3.1137000733567683 1.06 2 6.7517747614864652 5.4219765146169792 2 12.890599727757873 1.06 2 14.443816814235001 2.5007085219178808 2 26.316305795827311 4.3593838240117737 2 29.526962873968714 2.800163158369585 2 39.774527991751036 1.06 2 42.136489880050007 4.5492089620823721 2 46.431296011357077 4.0361906585712042 2 55.130571193684396 4.1172118691017472 2 56.968658970032045 1.9377621763725137 2 67.247556386922241 3.2181117734727471 2 69.040801458055284 4.356975867795887 2 72.438657108799291 2.8613959496371524 2 73.380866515347577 4.9024390142294649 2 75.952248845800298 4.9780571062728516 2 86.220925282101405 4.7122750748568087 2 88.329334474564305 4.4957737547112329 2 96.85448959076642 1.548401534090398 2 98.939999999999998 3.1800926509598906 2 </DataArray>
</Points>
<Cells>
<DataArray Name="connectivity" format="ascii" type="Int32">0</DataArray>
<DataArray Name="offsets" format="ascii" type="Int32">0</DataArray>
<DataArray Name="types" format="ascii" type="UInt8">1</DataArray>
</Cells>
<PointData>
<DataArray Name="Points" NumberOfComponents="3" format="ascii" type="Float32">2.0493330603605879 2.935211050615167 2 5.0696700177902807 1.5683630519093867 2 6.0679954027791343 3.4430329367015822 2 7.4626428041466504 1.3600000000000003 2 11.417687281435192 2.5838339510913779 2 15.15781817211875 4.4970804727281237 2 16.577832610212958 1.3600000000000003 2 25.420268041567759 2.4390491493862823 2 27.585361971215637 1.3600000000000003 2 29.141970005717095 4.8834390243588617 2 31.470714849914465 1.3600000000000003 2 33.804944325722325 2.7529384867210376 2 37.527992127298923 1.9785933778879605 2 41.704939126635516 1.9045333284730446 2 43.550872283953716 2.9659665007966307 2 48.196378113547311 2.8630906287914093 2 50.085071538016081 1.3600000000000003 2 53.531484754056024 2.7255703136449161 2 58.611549215446075 3.2782229506518457 2 62.040332921923969 1.3673163277700355 2 65.126079003964165 3.1636117892045732 2 69.689941094288741 2.3496086892107417 2 71.386246375127939 1.06 2 74.577698253406467 3.1384997702756814 2 76.196588863798709 1.3600000000000003 2 77.350962260117768 3.4062146888056453 2 86.597065228767221 2.6231976747104553 2 89.427884571630301 2.6823068550343772 2 91.454284731903158 1.3600000000000003 2 95.210048864277255 2.8869770362540401 2 98.917840680555358 1.06 2 1.06 1.06 2 3.1137000733567683 1.06 2 6.7517747614864652 5.4219765146169792 2 12.890599727757873 1.06 2 14.443816814235001 2.5007085219178808 2 26.316305795827311 4.3593838240117737 2 29.526962873968714 2.800163158369585 2 39.774527991751036 1.06 2 42.136489880050007 4.5492089620823721 2 46.431296011357077 4.0361906585712042 2 55.130571193684396 4.1172118691017472 2 56.968658970032045 1.9377621763725137 2 67.247556386922241 3.2181117734727471 2 69.040801458055284 4.356975867795887 2 72.438657108799291 2.8613959496371524 2 73.380866515347577 4.9024390142294649 2 75.952248845800298 4.9780571062728516 2 86.220925282101405 4.7122750748568087 2 88.329334474564305 4.4957737547112329 2 96.85448959076642 1.548401534090398 2 98.939999999999998 3.1800926509598906 2 </DataArray>
<DataArray Name="forces" NumberOfComponents="3" format="ascii" type="Float32">0.0 0.0 0.0 0.00074947725702666224 -0.0017004970138479666 0.0 0.01097943338055472 0.017628975164398125 0.0 0.028243464703331091 -0.0019704659299464664 0.0 0.013168181755462192 0.014726173219869885 0.0 0.00073078404520294659 0.0020461961989823151 0.0 0.00045819306728407867 -0.0016132313819983797 0.0 -0.00097923914487101299 0.0027162452887410015 0.0 0.00015398258100528554 -0.0046976429373631994 0.0 -0.00067190901361970199 0.003643673871477353 0.0 0.0020280728376965759 -0.0045286182307848156 0.0 0.0011855157171317622 0.0025452235798866379 0.0 -0.0031709092351038951 0.0023877809699336034 0.0 -0.0038073728335859761 -0.0022253832684875239 0.0 0.0040688548611442906 0.0023395160735955041 0.0 -0.0013352700179638985 0.0015304794784701784 0.0 -0.0024075013166622557 -0.0028160025379816425 0.0 0.0001249010361472052 0.0029927400829600193 0.0 0.0 0.0 0.0 0.0 0.0 0.0 -0.0010443311407591722 -2.6828488108969674e-05 0.0 -0.0092243502736138079 0.0050538271592504595 0.0 0.0061660851925711239 -0.014146912823154936 0.0 0.014405650943282052 0.017376501936622837 0.0 0.041124732646814037 -0.046566092519010012 0.0 -0.029804862381739895 -0.012745220490339732 0.0 0.0 0.0 0.0 -0.00035075910265640418 -0.00012394599858924551 0.0 0.00012480932779814944 -0.00039847986260126551 0.0 0.0 0.0 0.0 0.0 0.0 0.0 -0.089612698006456437 0.0 0.0 0.015117563245003407 -0.019243418736090555 0.0 0.0030306581158372004 0.0086767498977298654 0.0 -0.00082734540991651452 -0.0031818315567684482 0.0 -0.0003711234713598419 0.00079776871143931449 0.0 0.0017540211496705773 0.0037736727911988803 0.0 0.00011258548207615515 0.0023008404426057426 0.0 0.0041719494219095172 -0.0019288131111441474 0.0 0.0 0.0 0.0 -0.0036547278856615176 0.0024310377965627229 0.0 0.0042006015593517585 0.0036673511645173092 0.0 0.00038337622606205015 0.00016130179229289132 0.0 0.0010443311407591722 2.6828488108969674e-05 0.0 -0.00088732100877468903 0.0026954930884073884 0.0 -0.030466000524383845 0.0021802815344087673 0.0 -0.021855945238721263 0.033319987679068713 0.0 0.0 0.0 0.0 0.0 0.0 0.0 -0.00035403477258275778 0.00058408509489921569 0.0 0.0 0.0 0.0 0.0 0.0 0.0 </DataArray>
<DataArray Name="radii" format="ascii" type="Float32">1.06 1.06 1.06 1.3600000000000003 1.06 1.06 1.3600000000000003 1.06 1.3600000000000003 1.06 1.3600000000000003 1.3600000000000003 1.3600000000000003 1.06 1.06 1.06 1.3600000000000003 1.06 1.06 1.3600000000000003 1.06 1.06 1.06 1.06 1.3600000000000003 1.06 1.06 1.06 1.3600000000000003 1.06 1.06 1.06 1.06 1.06 1.06 1.06 1.06 1.06 1.06 1.06 1.06 1.06 1.06 1.06 1.06 1.06 1.06 1.06 1.06 1.06 1.06 1.06 </DataArray>
</PointData>
<CellData/>
</Piece>
</UnstructuredGrid>
</VTKFile>
