<?xml version="1.0" ?>
<VTKFile byte_order="LittleEndian" type="UnstructuredGrid" version="0.1">
<UnstructuredGrid>
<Piece NumberOfCells="0" NumberOfPoints="18">
<Points>
<DataArray NumberOfComponents="3" format="ascii" type="Float32">9.829049598754148 1.1000007688710509 2 18.322844725525599 2.0953296172857128 2 20.117214022558329 1 2 22.117267509022032 1.9096174671623105 2 24.121250562454243 1 2 35.753574455124294 1 2 44.147210679632998 1 2 46.234366208750934 1.1 2 52.122414952655419 1 2 55.800488545517553 1.1 2 59.908477604990097 1.1 2 64.283146995495443 1.1 2 67.771252833875096 1 2 79.803605662470787 1.3000000000000003 2 82.360802929951561 1.7441918101718235 2 84.548099192648806 1 2 87.970644180646573 1 2 93.945647500597076 1.1 2 </DataArray>
</Points>
<Cells>
<DataArray Name="connectivity" format="ascii" type="Int32">0</DataArray>
<DataArray Name="offsets" format="ascii" type="Int32">0</DataArray>
<DataArray Name="types" format="ascii" type="UInt8">1</DataArray>
</Cells>
<PointData>
<DataArray Name="Points" NumberOfComponents="3" format="ascii" type="Float32">9.829049598754148 1.1000007688710509 2 18.322844725525599 2.0953296172857128 2 20.117214022558329 1 2 22.117267509022032 1.9096174671623105 2 24.121250562454243 1 2 35.753574455124294 1 2 44.147210679632998 1 2 46.234366208750934 1.1 2 52.122414952655419 1 2 55.800488545517553 1.1 2 59.908477604990097 1.1 2 64.283146995495443 1.1 2 67.771252833875096 1 2 79.803605662470787 1.3000000000000003 2 82.360802929951561 1.7441918101718235 2 84.548099192648806 1 2 87.970644180646573 1 2 93.945647500597076 1.1 2 </DataArray>
<DataArray Name="forces" NumberOfComponents="3" format="ascii" type="Float32">0.0056443799030547965 5.3951596482365778e-07 0.0 -0.0017166638212570446 0.0023017731200690042 0.0 0.0014653390467250346 -0.002347027213336776 0.0 -0.00014006885563184329 0.0013023133638757536 0.0 0.0011304017550692195 -0.00096194637650947299 0.0 -0.0085507873518644827 -0.0008326256057074855 0.0 0.0046290196942872178 -0.0038239399108076473 0.0 -0.0032177295112494324 -0.0023393863766439948 0.0 -0.0020802955227883094 -0.0017939375718038744 0.0 0.001203656677496875 -0.003694326688650244 0.0 0.00027887844029116625 -0.00021025124015055041 0.0 -0.003788140153681827 -0.0029833328244694463 0.0 -0.0012491094920399949 -0.0041177287397554403 0.0 0.0090803700481945707 -0.0069571104450289181 0.0 -0.0058004625559600134 0.0019809992651146032 0.0 0.0058004625559600134 -0.0019809992651146032 0.0 0.0026432774253468362 -0.012730048287832722 0.0 -0.056248947519267067 -0.0091189321047348091 0.0 </DataArray>
<DataArray Name="radii" format="ascii" type="Float32">1.1 1.1 1 1.2000000000000002 1 1 1 1.1 1 1.1 1.1 1.1 1 1.3000000000000003 1.3000000000000003 1 1 1.1 </DataArray>
</PointData>
<CellData/>
</Piece>
</UnstructuredGrid>
</VTKFile>
