<?xml version="1.0" ?>
<VTKFile byte_order="LittleEndian" type="UnstructuredGrid" version="0.1">
<UnstructuredGrid>
<Piece NumberOfCells="0" NumberOfPoints="20">
<Points>
<DataArray NumberOfComponents="3" format="ascii" type="Float32">9.7913904795312074 1.1 2 18.449459239006305 2.266742319490211 2 20.141342554663701 1 2 22.102961930297781 1.9760474429721198 2 24.087455353289791 1 2 35.75404998228565 1 2 44.147381889749269 1 2 46.250900964007975 1.1 2 52.213842995398764 1 2 55.770839257366255 1.1 2 59.834964088898857 1.1 2 64.399068536381151 1.1 2 67.716049021462155 1 2 79.375700024623569 1 2 82.935533931236279 1.6369608571821028 2 84.964607249242761 1 2 87.910334524164455 1 2 93.610895148616692 1.1 2 79.654584225732634 2.9976973119201906 2 81.74453436385744 3.1212267694554869 2 </DataArray>
</Points>
<Cells>
<DataArray Name="connectivity" format="ascii" type="Int32">0</DataArray>
<DataArray Name="offsets" format="ascii" type="Int32">0</DataArray>
<DataArray Name="types" format="ascii" type="UInt8">1</DataArray>
</Cells>
<PointData>
<DataArray Name="Points" NumberOfComponents="3" format="ascii" type="Float32">9.7913904795312074 1.1 2 18.449459239006305 2.266742319490211 2 20.141342554663701 1 2 22.102961930297781 1.9760474429721198 2 24.087455353289791 1 2 35.75404998228565 1 2 44.147381889749269 1 2 46.250900964007975 1.1 2 52.213842995398764 1 2 55.770839257366255 1.1 2 59.834964088898857 1.1 2 64.399068536381151 1.1 2 67.716049021462155 1 2 79.375700024623569 1 2 82.935533931236279 1.6369608571821028 2 84.964607249242761 1 2 87.910334524164455 1 2 93.610895148616692 1.1 2 79.654584225732634 2.9976973119201906 2 81.74453436385744 3.1212267694554869 2 </DataArray>
<DataArray Name="forces" NumberOfComponents="3" format="ascii" type="Float32">-0.0016004303219944874 -0.0011072708405349754 0.0 -0.0018968663156427668 0.0028957050659503178 0.0 0.0017837341543653106 -0.0028997160847678686 0.0 -0.0014583883098381342 0.0019566729321909711 0.0 0.0019574928385981422 -0.0020297201318714201 0.0 0.007273320111057322 -0.0044104187797693499 0.0 -0.0011411531184343758 -0.00099361874018264297 0.0 0.00095822911425980019 -0.00075034077212451195 0.0 0.0018031740233571915 -0.00081318043067114853 0.0 -0.00077414952764245828 -0.0017065387696481239 0.0 -0.0020873822800178549 -0.0026024572238845852 0.0 0.0027869920819090085 -0.0024646451658064199 0.0 -0.00044072382281867806 -0.0012667275471454913 0.0 -0.0018990901231974422 -0.011235439590473162 0.0 -0.023927769365687676 0.0051093236781139823 0.0 0.018532775825988092 -0.01988904807684555 0.0 0.0 0.0 0.0 -0.04301896904635534 -0.015710879235714795 0.0 -0.016070937366096917 0.0099540830733240038 0.0 0.014403794034706175 0.0052505378179110189 0.0 </DataArray>
<DataArray Name="radii" format="ascii" type="Float32">1.1 1.1 1 1.2000000000000002 1 1 1 1.1 1 1.1 1.1 1.1 1 1 1 1 1 1.1 1 1 </DataArray>
</PointData>
<CellData/>
</Piece>
</UnstructuredGrid>
</VTKFile>
