<?xml version="1.0" ?>
<VTKFile byte_order="LittleEndian" type="UnstructuredGrid" version="0.1">
<UnstructuredGrid>
<Piece NumberOfCells="0" NumberOfPoints="23">
<Points>
<DataArray NumberOfComponents="3" format="ascii" type="Float32">10.327215416813601 1.1 2 18.786538153009388 2.6057563756735176 2 20.139886636270401 1 2 22.021720167429333 2.1396173318905714 2 23.903540819474397 1 2 35.346538351621774 1 2 44.184244152769523 1 2 46.282906449667088 1.1020999388518453 2 52.466095077594844 1 2 54.942955313557007 1.1 2 59.563179019773301 1.1 2 64.507939629584342 1.1 2 67.674904105028347 1 2 80.692165577220578 1.1 2 82.892173270337977 1.1 2 85.303287713822357 1 2 87.911253374593556 1 2 93.969230495070107 1.1 2 79.270896660455591 4.3610031285545032 2 82.247663508583315 5.1780147658844307 2 78.552108613073699 1.6102066804129753 2 83.321262037346969 3.2577501275842895 2 81.06449648861954 3.2684777420034652 2 </DataArray>
</Points>
<Cells>
<DataArray Name="connectivity" format="ascii" type="Int32">0</DataArray>
<DataArray Name="offsets" format="ascii" type="Int32">0</DataArray>
<DataArray Name="types" format="ascii" type="UInt8">1</DataArray>
</Cells>
<PointData>
<DataArray Name="Points" NumberOfComponents="3" format="ascii" type="Float32">10.327215416813601 1.1 2 18.786538153009388 2.6057563756735176 2 20.139886636270401 1 2 22.021720167429333 2.1396173318905714 2 23.903540819474397 1 2 35.346538351621774 1 2 44.184244152769523 1 2 46.282906449667088 1.1020999388518453 2 52.466095077594844 1 2 54.942955313557007 1.1 2 59.563179019773301 1.1 2 64.507939629584342 1.1 2 67.674904105028347 1 2 80.692165577220578 1.1 2 82.892173270337977 1.1 2 85.303287713822357 1 2 87.911253374593556 1 2 93.969230495070107 1.1 2 79.270896660455591 4.3610031285545032 2 82.247663508583315 5.1780147658844307 2 78.552108613073699 1.6102066804129753 2 83.321262037346969 3.2577501275842895 2 81.06449648861954 3.2684777420034652 2 </DataArray>
<DataArray Name="forces" NumberOfComponents="3" format="ascii" type="Float32">0.045361961795933048 -0.0055407281365645808 0.0 0.0 0.0 0.0 0.0 0.0 0.0 0.0 0.0 0.0 -6.4949170972205267e-06 -6.7807849666928698e-06 0.0 0.0 0.0 0.0 0.0 0.0 0.0 0.0 0.0 0.0 0.0 0.0 0.0 0.0 0.0 0.0 0.0 0.0 0.0 0.0 0.0 0.0 0.0 0.0 0.0 0.0 0.0 0.0 0.0 0.0 0.0 0.0 0.0 0.0 0.0 0.0 0.0 0.0 0.0 0.0 0.0 0.0 0.0 0.0 0.0 0.0 0.0 0.0 0.0 0.0 0.0 0.0 0.0 0.0 0.0 </DataArray>
<DataArray Name="radii" format="ascii" type="Float32">1.1 1.1 1 1.2000000000000002 1 1 1 1.1 1 1.1 1.1 1.1 1 1.1 1.1 1 1 1.1 1 1.1 1.1 1.1 1.1 </DataArray>
</PointData>
<CellData/>
</Piece>
</UnstructuredGrid>
</VTKFile>
