<?xml version="1.0" ?>
<VTKFile byte_order="LittleEndian" type="UnstructuredGrid" version="0.1">
<UnstructuredGrid>
<Piece NumberOfCells="0" NumberOfPoints="29">
<Points>
<DataArray NumberOfComponents="3" format="ascii" type="Float32">11.071930260869722 1.1 2 19.592185632321154 3.2272620655153328 2 20.107828153749058 1 2 21.89920364824987 2.2771272353181744 2 23.690366920882248 1 2 34.93540105406462 1 2 44.364603012756255 1 2 46.464676757187398 1.1113806168798597 2 52.503803566476755 1 2 54.600188272471961 1.1 2 58.726357961155976 1.1 2 64.932829625222155 1.1 2 67.553977325668797 1 2 82.090256574255179 1.1 2 84.545961020139444 1.1 2 86.608391202850044 1 2 88.616269388089094 1 2 93.854338631256724 1.1 2 78.395666847777193 6.2566262256706873 2 82.593873075040946 7.8759085012121623 2 78.201657482550388 2.2072693839995581 2 84.425089630856959 4.5656123650665776 2 80.267047041300998 5.2684289974418173 2 80.343055395256158 2.1761783770698546 2 83.367805729152749 2.7230955126348104 2 82.446505363087155 5.6702841747022461 2 76.559655239459815 1 2 84.486219207321611 6.7435583816327016 2 81.581996570796647 3.7045418528047236 2 </DataArray>
</Points>
<Cells>
<DataArray Name="connectivity" format="ascii" type="Int32">0</DataArray>
<DataArray Name="offsets" format="ascii" type="Int32">0</DataArray>
<DataArray Name="types" format="ascii" type="UInt8">1</DataArray>
</Cells>
<PointData>
<DataArray Name="Points" NumberOfComponents="3" format="ascii" type="Float32">11.071930260869722 1.1 2 19.592185632321154 3.2272620655153328 2 20.107828153749058 1 2 21.89920364824987 2.2771272353181744 2 23.690366920882248 1 2 34.93540105406462 1 2 44.364603012756255 1 2 46.464676757187398 1.1113806168798597 2 52.503803566476755 1 2 54.600188272471961 1.1 2 58.726357961155976 1.1 2 64.932829625222155 1.1 2 67.553977325668797 1 2 82.090256574255179 1.1 2 84.545961020139444 1.1 2 86.608391202850044 1 2 88.616269388089094 1 2 93.854338631256724 1.1 2 78.395666847777193 6.2566262256706873 2 82.593873075040946 7.8759085012121623 2 78.201657482550388 2.2072693839995581 2 84.425089630856959 4.5656123650665776 2 80.267047041300998 5.2684289974418173 2 80.343055395256158 2.1761783770698546 2 83.367805729152749 2.7230955126348104 2 82.446505363087155 5.6702841747022461 2 76.559655239459815 1 2 84.486219207321611 6.7435583816327016 2 81.581996570796647 3.7045418528047236 2 </DataArray>
<DataArray Name="forces" NumberOfComponents="3" format="ascii" type="Float32">0.0 0.0 0.0 9.759542752911243e-05 9.345778326895257e-05 0.0 -6.7085879559300351e-05 -4.7828922579080782e-05 0.0 6.7085879559300351e-05 4.7828922579080782e-05 0.0 -0.00030785557137479535 -0.00058297358920410432 0.0 -0.0013023469370714361 -0.002926463161262416 0.0 -0.0064768784662475798 -0.00034429078765640052 0.0 0.0064768784662475798 0.00034429078765640052 0.0 -0.00049000130829211699 -0.0035947174541673512 0.0 0.0038877009467398558 -0.001592121043006647 0.0 0.039877830608021872 -0.02248889995600727 0.0 0.0 0.0 0.0 0.0 0.0 0.0 -0.00029368191259619274 -0.00040002252203428867 0.0 -0.024909218834518909 -0.0043338053572797774 0.0 -0.03312806719371976 -0.0073298879688924335 0.0 0.06188540396064468 0.0 0.0 0.0066832176170743491 -0.0067758046374545022 0.0 -0.009907589435533333 0.062787291064786546 0.0 -0.0096421263081096099 0.0057696965115094992 0.0 -0.088835255274710187 0.0012898011719167733 0.0 0.034390044242778986 0.055837055103128794 0.0 0.038137909154083584 -0.019274423580754613 0.0 0.088835255274710187 -0.0012898011719167733 0.0 0.04746330406494003 -0.094361121667490902 0.0 0.0 0.0 0.0 0.046244580479010866 -0.069493063093478941 0.0 0.0096421263081096099 -0.0057696965115094992 0.0 -0.085735769240631185 0.044664025247990201 0.0 </DataArray>
<DataArray Name="radii" format="ascii" type="Float32">1.1 1.1 1 1.2000000000000002 1 1 1 1.1 1 1.1 1.1 1.1 1 1.1 1.1 1 1 1.1 1 1.1 1.1 1.1 1.1 1 1 1.1 1 1.1 1 </DataArray>
</PointData>
<CellData/>
</Piece>
</UnstructuredGrid>
</VTKFile>
