<?xml version="1.0" ?>
<VTKFile byte_order="LittleEndian" type="UnstructuredGrid" version="0.1">
<UnstructuredGrid>
<Piece NumberOfCells="0" NumberOfPoints="104">
<Points>
<DataArray NumberOfComponents="3" format="ascii" type="Float32">1.4649749630371767 5.5950366048316713 2 7.5078323792594714 1.12 2 5.1432261781161843 5.5950840448093402 2 9.6405193068238582 4.7690472002217694 2 12.062597962785519 5.535257297167826 2 15.319423152184644 7.5017277456977309 2 17.239953888112158 1.4200000000000004 2 24.272875929200708 3.9777985637249516 2 27.315439055492948 1.4200000000000004 2 28.145395502635207 6.855351166985276 2 30.149896144217145 1.4200000000000004 2 33.600605588957272 4.4275923890201794 2 38.902475745638228 4.2730686436259111 2 41.035749242888038 2.9042054485385211 2 45.368017967954508 2.9536968077844468 2 48.398438095946211 3.9190244678094279 2 51.021483609125575 3.5279540772943485 2 53.199380005675536 4.8451608039255767 2 58.465689166994068 4.563839966524422 2 63.147746726641294 1.4200000000000004 2 62.955202698280878 6.7637643162641208 2 66.828867467778679 3.7945124109317674 2 70.206574220061043 1.12 2 73.148419396298181 6.7949527830272549 2 73.30627056466507 4.2563383627082914 2 77.584808596054927 6.3007654835732296 2 88.694015953369671 4.3098180140109594 2 90.778057826909233 3.7341233419609496 2 93.308405567539026 3.8333580400611735 2 95.026895649161048 5.6601087776145542 2 96.66225487651046 1.12 2 1.1200000000000001 3.3603730478109046 2 3.1964067106031426 1.9490602737800287 2 7.3631751707364943 5.8940441931658576 2 14.722047202363388 1.12 2 14.625764290036326 5.3716091983802379 2 25.040401244301883 6.0793361368968784 2 29.240631215738926 4.9027767471859596 2 39.687396135725677 1.12 2 40.853831255887542 6.1804297654264788 2 46.485397374139069 6.3567096139627743 2 55.733999942225012 5.0159108974432058 2 56.81405268340346 3.0515055955597745 2 64.674978607871651 3.415843932795902 2 67.478488393030247 6.6207365072426425 2 70.953065590585169 3.3043840014256194 2 72.567617814455858 8.9616428821907359 2 74.8000267808914 8.8044275256639963 2 89.828181382737242 9.1627721762161514 2 91.922001278177845 8.3721276671233493 2 95.66567230633413 3.0748027185836939 2 98.88 6.0705980963882071 2 10.015752798270867 1.4411505224358667 2 19.523839350229586 3.0956622076505127 2 26.798695934190064 4.2118861618832497 2 32.982888035540341 1.5337354697437382 2 35.691092716238416 6.3479870604511275 2 36.221133016913363 3.3406985485592644 2 49.057531607940902 1.4692384871717858 2 60.335222399819834 1.4200000000000004 2 72.744115212805212 1.4508921236993373 2 91.807831075998479 1.4200000000000004 2 3.2055841827475371 4.187533826959065 2 7.5273262030277506 3.3596109535705936 2 5.2876178048087557 3.3597055368083986 2 11.727812183651427 3.3208501882429471 2 17.116392701470716 6.1257932204838346 2 24.809809427299076 1.8046302272765353 2 30.345067925956709 7.2786121454832786 2 42.383486689322808 1.12 2 44.653253558198905 5.0677562355289112 2 48.712078408298026 6.1340934360780492 2 54.56988228182724 3.0739197538097884 2 60.608157261537819 3.938505328385435 2 62.758795774036912 4.5381807769785318 2 69.038214992054264 5.0112394415546504 2 68.799081192136299 2.7759458307605787 2 71.192456497423066 5.6760728253114463 2 75.343144693554379 6.6795185413361109 2 86.600783976447929 3.5525377669965028 2 90.375719095966659 5.9543458847210022 2 96.203638919925723 7.5654125918037414 2 98.88 1.12 2 1.12 1.12 2 5.2700310699790345 1.12 2 7.080117473831387 8.1160814495413334 2 13.964780682441685 3.2274396987623906 2 16.150367600921729 3.7177720239194376 2 26.212983006369413 7.9867428140303272 2 31.156576795450974 3.7486834684370804 2 37.451450499772946 1.12 2 42.462957484626166 4.6238822256536798 2 44.276364920465198 7.2763520375862747 2 55.125170244212534 7.1701313908335615 2 55.675670263764978 1.12 2 65.523483732930487 5.5524537444630786 2 68.045226601085773 8.8685805020433222 2 69.630047630480362 7.2781424141514837 2 70.373723084805093 9.3929310852301455 2 74.961606419763214 11.037285773133821 2 88.467840207456177 10.969711588884511 2 92.597524211359428 6.2422508712855675 2 97.084999176157552 4.7750774733862711 2 98.879999999999995 3.3600000000905017 2 </DataArray>
</Points>
<Cells>
<DataArray Name="connectivity" format="ascii" type="Int32">0</DataArray>
<DataArray Name="offsets" format="ascii" type="Int32">0</DataArray>
<DataArray Name="types" format="ascii" type="UInt8">1</DataArray>
</Cells>
<PointData>
<DataArray Name="Points" NumberOfComponents="3" format="ascii" type="Float32">1.4649749630371767 5.5950366048316713 2 7.5078323792594714 1.12 2 5.1432261781161843 5.5950840448093402 2 9.6405193068238582 4.7690472002217694 2 12.062597962785519 5.535257297167826 2 15.319423152184644 7.5017277456977309 2 17.239953888112158 1.4200000000000004 2 24.272875929200708 3.9777985637249516 2 27.315439055492948 1.4200000000000004 2 28.145395502635207 6.855351166985276 2 30.149896144217145 1.4200000000000004 2 33.600605588957272 4.4275923890201794 2 38.902475745638228 4.2730686436259111 2 41.035749242888038 2.9042054485385211 2 45.368017967954508 2.9536968077844468 2 48.398438095946211 3.9190244678094279 2 51.021483609125575 3.5279540772943485 2 53.199380005675536 4.8451608039255767 2 58.465689166994068 4.563839966524422 2 63.147746726641294 1.4200000000000004 2 62.955202698280878 6.7637643162641208 2 66.828867467778679 3.7945124109317674 2 70.206574220061043 1.12 2 73.148419396298181 6.7949527830272549 2 73.30627056466507 4.2563383627082914 2 77.584808596054927 6.3007654835732296 2 88.694015953369671 4.3098180140109594 2 90.778057826909233 3.7341233419609496 2 93.308405567539026 3.8333580400611735 2 95.026895649161048 5.6601087776145542 2 96.66225487651046 1.12 2 1.1200000000000001 3.3603730478109046 2 3.1964067106031426 1.9490602737800287 2 7.3631751707364943 5.8940441931658576 2 14.722047202363388 1.12 2 14.625764290036326 5.3716091983802379 2 25.040401244301883 6.0793361368968784 2 29.240631215738926 4.9027767471859596 2 39.687396135725677 1.12 2 40.853831255887542 6.1804297654264788 2 46.485397374139069 6.3567096139627743 2 55.733999942225012 5.0159108974432058 2 56.81405268340346 3.0515055955597745 2 64.674978607871651 3.415843932795902 2 67.478488393030247 6.6207365072426425 2 70.953065590585169 3.3043840014256194 2 72.567617814455858 8.9616428821907359 2 74.8000267808914 8.8044275256639963 2 89.828181382737242 9.1627721762161514 2 91.922001278177845 8.3721276671233493 2 95.66567230633413 3.0748027185836939 2 98.88 6.0705980963882071 2 10.015752798270867 1.4411505224358667 2 19.523839350229586 3.0956622076505127 2 26.798695934190064 4.2118861618832497 2 32.982888035540341 1.5337354697437382 2 35.691092716238416 6.3479870604511275 2 36.221133016913363 3.3406985485592644 2 49.057531607940902 1.4692384871717858 2 60.335222399819834 1.4200000000000004 2 72.744115212805212 1.4508921236993373 2 91.807831075998479 1.4200000000000004 2 3.2055841827475371 4.187533826959065 2 7.5273262030277506 3.3596109535705936 2 5.2876178048087557 3.3597055368083986 2 11.727812183651427 3.3208501882429471 2 17.116392701470716 6.1257932204838346 2 24.809809427299076 1.8046302272765353 2 30.345067925956709 7.2786121454832786 2 42.383486689322808 1.12 2 44.653253558198905 5.0677562355289112 2 48.712078408298026 6.1340934360780492 2 54.56988228182724 3.0739197538097884 2 60.608157261537819 3.938505328385435 2 62.758795774036912 4.5381807769785318 2 69.038214992054264 5.0112394415546504 2 68.799081192136299 2.7759458307605787 2 71.192456497423066 5.6760728253114463 2 75.343144693554379 6.6795185413361109 2 86.600783976447929 3.5525377669965028 2 90.375719095966659 5.9543458847210022 2 96.203638919925723 7.5654125918037414 2 98.88 1.12 2 1.12 1.12 2 5.2700310699790345 1.12 2 7.080117473831387 8.1160814495413334 2 13.964780682441685 3.2274396987623906 2 16.150367600921729 3.7177720239194376 2 26.212983006369413 7.9867428140303272 2 31.156576795450974 3.7486834684370804 2 37.451450499772946 1.12 2 42.462957484626166 4.6238822256536798 2 44.276364920465198 7.2763520375862747 2 55.125170244212534 7.1701313908335615 2 55.675670263764978 1.12 2 65.523483732930487 5.5524537444630786 2 68.045226601085773 8.8685805020433222 2 69.630047630480362 7.2781424141514837 2 70.373723084805093 9.3929310852301455 2 74.961606419763214 11.037285773133821 2 88.467840207456177 10.969711588884511 2 92.597524211359428 6.2422508712855675 2 97.084999176157552 4.7750774733862711 2 98.879999999999995 3.3600000000905017 2 </DataArray>
<DataArray Name="forces" NumberOfComponents="3" format="ascii" type="Float32">0.0 0.0 0.0 0.0085534576240804561 -0.0005991104307267413 0.0 -0.00015497136389019042 -2.0872790438497329e-05 0.0 -0.0021334830586513549 0.00062133945613087249 0.0 0.00085221949913011743 0.00026980704771603371 0.0 0.0 0.0 0.0 0.0030588196138020482 -0.0027312259026316702 0.0 0.0010768917542669486 0.0018581788293299513 0.0 -0.00098249610816259283 -0.0014498029158289787 0.0 -0.00036802315839767658 0.0011092597669261186 0.0 0.0001239328921072984 -0.0029750271028845367 0.0 0.0010335589723265968 0.001274331890999549 0.0 0.0016069314518814912 0.0014707308724342789 0.0 -0.0047767389803155353 0.0082871623317897665 0.0 -0.013052730685343586 0.020195939162049356 0.0 -0.0021449715158026557 0.0079091168268396426 0.0 0.0 0.0 0.0 0.0 0.0 0.0 0.015727293216009419 0.014352496212898936 0.0 0.043180658573327847 -0.009111768302052169 0.0 0.0017329998593281302 0.018963412116644127 0.0 -0.082865149823691267 0.057001852335413827 0.0 -0.091121991270701808 -0.013741015045827649 0.0 0.033814454090891795 0.029638190130080143 0.0 0.099097856173567811 0.0053253761012590495 0.0 0.14508118578793727 0.090066455742512846 0.0 0.10475026223194332 0.041445963698580474 0.0 -0.050674610806505219 -0.0053192509821404898 0.0 0.068148148735779152 0.045858554495140182 0.0 -0.02566803161218096 -0.013352263012785616 0.0 0.010881699090373446 -0.055732611783695957 0.0 0.0 0.0 0.0 0.0013685587235135973 -0.0028321678584286285 0.0 0.00016584498058856104 -6.4508564130079835e-05 0.0 -0.0053316897208816119 -0.00094239466401606538 0.0 0.0 0.0 0.0 -9.6380738216336336e-05 0.00058462132445475409 0.0 0.0010582277783232562 0.00090548563375037275 0.0 0.00069400337418042395 -0.0041007979824450383 0.0 -0.0010448939316845894 0.0010112633533609985 0.0 0.0054344276229382742 0.0038043145876396926 0.0 -0.0040166872059791076 0.0072316671479582583 0.0 -0.011710606010030312 -0.021584163360857195 0.0 -0.013879070914926829 0.0025014323067824844 0.0 -0.043912783347492927 0.021226951377395397 0.0 -0.17646805294780277 0.032572933297986335 0.0 -0.0012529059923979545 -0.00036518382571350125 0.0 0.0034607133084061689 -0.019080719841128052 0.0 0.014595427011479733 0.0030764582220185951 0.0 -0.008011952959068383 0.025266190094757709 0.0 -0.025809174251809768 0.02132359061283761 0.0 0.01542455796607187 0.01106870624736609 0.0 -0.014611118751983933 -0.002466404516203064 0.0 -0.0012131858624880179 0.0019072148791305873 0.0 -0.00031721480979008841 0.00013880376480455232 0.0 9.0284979212497916e-05 0.0012389410387603022 0.0 0.00079001226473030472 0.00072579009332396284 0.0 -0.0011866335708166848 -0.0002971357911885999 0.0 -0.0098740684230203303 -0.0055073938491619588 0.0 -0.0057801955015979239 -0.00041855201657684579 0.0 0.16022091281656853 -0.073242523329780873 0.0 -0.076215242745734338 -0.037610897849198112 0.0 -0.00051292732139384355 0.0056823754898991576 0.0 0.00063010332851578003 0.00050336255483044139 0.0 -8.5558293811685088e-05 6.4601944224239284e-05 0.0 0.0050536638299142709 0.0032669972465380688 0.0 0.0 0.0 0.0 -0.00089791953978265397 0.00033965266965041928 0.0 8.5251652312986627e-05 1.6425425729559424e-05 0.0 0.006086709194856761 -0.0080707717623577889 0.0 -4.0377494206016683e-06 -0.013701870775650948 0.0 0.0 0.0 0.0 -0.0012886453982963375 0.002304797100665841 0.0 -0.019352975356642214 0.00063123096622807236 0.0 0.014006806138376147 -0.010758232015063686 0.0 0.026037941444739417 -0.027058569576400959 0.0 0.15992455777274761 0.018029879908187101 0.0 -0.092958488905421882 0.020782269879030594 0.0 -0.094515219660153568 0.080725632742512321 0.0 -0.10036882048323315 -0.089067080819426755 0.0 0.022303311380860641 -0.0046115607677579334 0.0 0.011902859429777113 0.019406561153887929 0.0 0.017186877448315485 0.0 0.0 -0.0039937304976515684 -0.0015976299305654024 0.0 -0.0067075036973702172 -0.0013170962296098886 0.0 -1.0873616698370616e-05 8.5381354568577164e-05 0.0 -0.0012205825725469382 -0.00027383541042573967 0.0 0.0012205825725469382 0.00027383541042573967 0.0 0.00024568102469445436 0.0015461677237863804 0.0 -0.00022156967388247328 0.0001416324992132797 0.0 0.0012280690618139808 -0.0012366468977841178 0.0 0.00015875744153910762 0.0015381560115436924 0.0 -0.0018210621852845802 0.010640674354586748 0.0 0.0 0.0 0.0 0.028606729199531649 -0.0024353097134374559 0.0 -0.0067765035489506624 0.0089976218937459929 0.0 -0.031463486414216368 0.03153251182772867 0.0 0.041757808839401382 -0.046444804746986409 0.0 0.0039962340676461677 0.021431179508575825 0.0 0.0013764780939141161 0.018758635276529032 0.0 0.0 0.0 0.0 0.0058439658864425509 -0.017513272744585043 0.0 0.020350508093957605 0.00973412745857773 0.0 0.0 0.0 0.0 </DataArray>
<DataArray Name="radii" format="ascii" type="Float32">1.12 1.12 1.12 1.4200000000000004 1.12 1.12 1.4200000000000004 1.12 1.4200000000000004 1.12 1.4200000000000004 1.4200000000000004 1.4200000000000004 1.12 1.12 1.12 1.4200000000000004 1.12 1.12 1.4200000000000004 1.12 1.12 1.12 1.12 1.4200000000000004 1.12 1.12 1.12 1.4200000000000004 1.12 1.12 1.12 1.12 1.12 1.12 1.12 1.12 1.12 1.12 1.12 1.12 1.12 1.12 1.12 1.12 1.12 1.12 1.12 1.12 1.12 1.12 1.12 1.4200000000000004 1.4200000000000004 1.4200000000000004 1.4200000000000004 1.4200000000000004 1.4200000000000004 1.4200000000000004 1.4200000000000004 1.4200000000000004 1.4200000000000004 1.12 1.12 1.12 1.12 1.12 1.12 1.12 1.12 1.12 1.12 1.12 1.12 1.12 1.12 1.12 1.12 1.12 1.12 1.12 1.12 1.12 1.12 1.12 1.12 1.12 1.12 1.12 1.12 1.12 1.12 1.12 1.12 1.12 1.12 1.12 1.12 1.12 1.12 1.12 1.12 1.12 1.12 </DataArray>
</PointData>
<CellData/>
</Piece>
</UnstructuredGrid>
</VTKFile>
