<?xml version="1.0" ?>
<VTKFile byte_order="LittleEndian" type="UnstructuredGrid" version="0.1">
<UnstructuredGrid>
<Piece NumberOfCells="0" NumberOfPoints="31">
<Points>
<DataArray NumberOfComponents="3" format="ascii" type="Float32">1.29 1.29 2 3.8677334389847382 1.29 2 5.9134489280205704 2.8445322330436347 2 7.6249023413044128 1.12 2 12.226159946953878 1.2931229992248294 2 14.440614362816346 2.5281333879507466 2 16.414204819936565 1.12 2 25.895916460716755 2.4290188213546342 2 27.915621683659175 1.12 2 29.693090451182563 2.7533734568658836 2 31.457852738564117 1.12 2 33.702655378685343 1.4081192480109175 2 37.917148426454524 1.1261050338845753 2 40.234021893739857 1.29 2 42.5057219169639 2.5880668036172745 2 48.119401889275281 2.5843680215193281 2 50.038678967753079 1.12 2 53.868195274866437 2.5183357979580916 2 57.845113782855492 2.3300844160308722 2 62.114551852867287 1.1211548038391927 2 66.155298666781022 2.6417773129616617 2 69.565426659478064 2.3988530358659359 2 71.894470156915418 1.29 2 74.216365100221836 2.4186960888912106 2 76.247912885575715 1.12 2 77.6047400243948 3.1134817398176069 2 86.326850023780892 2.6233942379844306 2 89.680949531724039 2.469611785864176 2 91.745954860676093 1.12 2 96.21515676587245 1.622658335912853 2 98.71 1.29 2 </DataArray>
</Points>
<Cells>
<DataArray Name="connectivity" format="ascii" type="Int32">0</DataArray>
<DataArray Name="offsets" format="ascii" type="Int32">0</DataArray>
<DataArray Name="types" format="ascii" type="UInt8">1</DataArray>
</Cells>
<PointData>
<DataArray Name="Points" NumberOfComponents="3" format="ascii" type="Float32">1.29 1.29 2 3.8677334389847382 1.29 2 5.9134489280205704 2.8445322330436347 2 7.6249023413044128 1.12 2 12.226159946953878 1.2931229992248294 2 14.440614362816346 2.5281333879507466 2 16.414204819936565 1.12 2 25.895916460716755 2.4290188213546342 2 27.915621683659175 1.12 2 29.693090451182563 2.7533734568658836 2 31.457852738564117 1.12 2 33.702655378685343 1.4081192480109175 2 37.917148426454524 1.1261050338845753 2 40.234021893739857 1.29 2 42.5057219169639 2.5880668036172745 2 48.119401889275281 2.5843680215193281 2 50.038678967753079 1.12 2 53.868195274866437 2.5183357979580916 2 57.845113782855492 2.3300844160308722 2 62.114551852867287 1.1211548038391927 2 66.155298666781022 2.6417773129616617 2 69.565426659478064 2.3988530358659359 2 71.894470156915418 1.29 2 74.216365100221836 2.4186960888912106 2 76.247912885575715 1.12 2 77.6047400243948 3.1134817398176069 2 86.326850023780892 2.6233942379844306 2 89.680949531724039 2.469611785864176 2 91.745954860676093 1.12 2 96.21515676587245 1.622658335912853 2 98.71 1.29 2 </DataArray>
<DataArray Name="forces" NumberOfComponents="3" format="ascii" type="Float32">-0.018520860480861767 0.0 0.0 0.010303733947227289 -0.0060702018401412369 0.0 -0.0031625748624738454 0.017506532807734784 0.0 0.011379701396108324 -0.011436330967593547 0.0 0.026711248271396974 0.0019796948615436669 0.0 -0.0071003373910241323 0.005571373708832747 0.0 0.0073420087175225706 -0.0054379248401405242 0.0 0.00072587529591035694 0.00057945856857269005 0.0 -0.0027391394310116949 -0.0024919657119019246 0.0 -0.0042933882337352017 0.0089183473099788847 0.0 -0.0089067243966501897 -0.0084850618187765781 0.0 0.015939252061397086 0.0020586802206996172 0.0 0.045940929535901127 0.0027035620788823859 0.0 -0.01776609531053731 -0.010177673296187342 0.0 0.014430569891715431 0.013319677331938458 0.0 -0.00013277243752379516 0.0041455540321519869 0.0 0.0027422317851497407 -0.002087855085917086 0.0 -3.8258877851978174e-05 0.0023388428686276792 0.0 0.0048065529172956782 0.0037315198968394009 0.0 0.0093912938024754856 8.9277354508967611e-05 0.0 0.0049799833627905184 0.0060258951376822465 0.0 0.00079852220574063077 0.00061583250015253947 0.0 0.0 0.0 0.0 -0.0005866511255659167 0.00037519607142423421 0.0 0.0005866511255659167 -0.00037519607142423421 0.0 -0.0019729848113657139 0.0016287850676289216 0.0 0.0079474599979083935 0.0079428737222999191 0.0 -0.026272444136121363 0.02122339381918055 0.0 0.028824186996128348 -0.019164029207970112 0.0 0.0022527031094738692 0.021691119063197088 0.0 0.063390821419488805 -0.0075722048798762169 0.0 </DataArray>
<DataArray Name="radii" format="ascii" type="Float32">1.29 1.29 1.29 1.12 1.29 1.29 1.12 1.29 1.12 1.29 1.12 1.12 1.12 1.29 1.29 1.29 1.12 1.29 1.29 1.12 1.29 1.29 1.29 1.29 1.12 1.29 1.29 1.29 1.12 1.29 1.29 </DataArray>
</PointData>
<CellData/>
</Piece>
</UnstructuredGrid>
</VTKFile>
