<?xml version="1.0" ?>
<VTKFile byte_order="LittleEndian" type="UnstructuredGrid" version="0.1">
<UnstructuredGrid>
<Piece NumberOfCells="0" NumberOfPoints="62">
<Points>
<DataArray NumberOfComponents="3" format="ascii" type="Float32">2.5358117037892383 4.0316209988600882 2 6.9978054230402096 1.507704552826675 2 5.4448435262891408 3.9932874359417858 2 8.2877690463368694 3.8597674635295673 2 11.70737036290514 3.6199727676644327 2 15.742945511648751 6.8625697209575227 2 17.07801613384181 1.2700000000000002 2 24.623286350811089 3.2572330617734062 2 27.845041222117434 1.2700000000000002 2 28.747892980307309 6.5001611055452884 2 30.38504192028438 1.2700000000000002 2 33.286413182081674 3.7865938840852866 2 38.210623725215818 3.8503530658167535 2 42.173550621059547 1.830544778850473 2 44.49145177302541 3.4787808552948545 2 48.491176663916761 3.9322465114629352 2 50.93259252197339 2.8030169598975312 2 53.541716361213304 3.4577600695041837 2 59.108674976597904 3.5966554184465891 2 63.163234983188609 2.2445171702668234 2 63.272178568185787 4.932643973288692 2 68.593363690858396 3.0682809081001712 2 70.905631152229518 1.4200235940137107 2 73.734588331498742 5.5891561316823939 2 75.130923083928323 3.2900100937943093 2 76.593006989968828 5.6271585830283026 2 87.13837209509893 3.4016813045922771 2 89.960317544695343 3.6995557472268787 2 92.644052395627426 3.4190844367655986 2 95.060513566801504 4.6750946845613832 2 98.58 1.4200000000000004 2 1.4200000000000004 1.4200000000000004 2 4.1547078608091139 1.4200000000000004 2 7.1214007803603403 6.2839215632927514 2 14.385782387099317 1.4216943755401275 2 15.535466276595534 4.0358131298854252 2 25.705933286912074 5.9382943081540507 2 29.951376962474978 3.9247378567467264 2 39.363564946002001 1.4200000000000004 2 41.909293329940418 4.7078484700663035 2 46.265630315184886 5.69648759508864 2 55.659557609125201 5.3497706818646602 2 56.442341668866476 2.6181157996725593 2 66.046030797178759 4.3240276471492507 2 68.86557995792775 5.895349557026794 2 71.213828986632024 4.2434672364433093 2 71.566004962734596 7.4228541612455583 2 75.176581598901393 8.0887479723968241 2 88.089994717691908 7.7205592991822698 2 90.633341968669228 6.458436834070171 2 95.814045938942726 1.9481503999181815 2 98.579999999999998 4.2600000000000007 2 9.5863860854141905 1.2760209582718016 2 19.228359130624913 2.5592419270330784 2 27.267408818142393 3.7439656603896534 2 32.92502660247343 1.2724332530010607 2 35.075140662608632 5.6420317301150709 2 35.756602069147 3.1951621832034327 2 48.907978893805264 1.2700336985875944 2 60.817619185437835 1.2700000000000002 2 73.591470522966304 1.2700000000000002 2 91.12490457945097 1.2823342509468485 2 </DataArray>
</Points>
<Cells>
<DataArray Name="connectivity" format="ascii" type="Int32">0</DataArray>
<DataArray Name="offsets" format="ascii" type="Int32">0</DataArray>
<DataArray Name="types" format="ascii" type="UInt8">1</DataArray>
</Cells>
<PointData>
<DataArray Name="Points" NumberOfComponents="3" format="ascii" type="Float32">2.5358117037892383 4.0316209988600882 2 6.9978054230402096 1.507704552826675 2 5.4448435262891408 3.9932874359417858 2 8.2877690463368694 3.8597674635295673 2 11.70737036290514 3.6199727676644327 2 15.742945511648751 6.8625697209575227 2 17.07801613384181 1.2700000000000002 2 24.623286350811089 3.2572330617734062 2 27.845041222117434 1.2700000000000002 2 28.747892980307309 6.5001611055452884 2 30.38504192028438 1.2700000000000002 2 33.286413182081674 3.7865938840852866 2 38.210623725215818 3.8503530658167535 2 42.173550621059547 1.830544778850473 2 44.49145177302541 3.4787808552948545 2 48.491176663916761 3.9322465114629352 2 50.93259252197339 2.8030169598975312 2 53.541716361213304 3.4577600695041837 2 59.108674976597904 3.5966554184465891 2 63.163234983188609 2.2445171702668234 2 63.272178568185787 4.932643973288692 2 68.593363690858396 3.0682809081001712 2 70.905631152229518 1.4200235940137107 2 73.734588331498742 5.5891561316823939 2 75.130923083928323 3.2900100937943093 2 76.593006989968828 5.6271585830283026 2 87.13837209509893 3.4016813045922771 2 89.960317544695343 3.6995557472268787 2 92.644052395627426 3.4190844367655986 2 95.060513566801504 4.6750946845613832 2 98.58 1.4200000000000004 2 1.4200000000000004 1.4200000000000004 2 4.1547078608091139 1.4200000000000004 2 7.1214007803603403 6.2839215632927514 2 14.385782387099317 1.4216943755401275 2 15.535466276595534 4.0358131298854252 2 25.705933286912074 5.9382943081540507 2 29.951376962474978 3.9247378567467264 2 39.363564946002001 1.4200000000000004 2 41.909293329940418 4.7078484700663035 2 46.265630315184886 5.69648759508864 2 55.659557609125201 5.3497706818646602 2 56.442341668866476 2.6181157996725593 2 66.046030797178759 4.3240276471492507 2 68.86557995792775 5.895349557026794 2 71.213828986632024 4.2434672364433093 2 71.566004962734596 7.4228541612455583 2 75.176581598901393 8.0887479723968241 2 88.089994717691908 7.7205592991822698 2 90.633341968669228 6.458436834070171 2 95.814045938942726 1.9481503999181815 2 98.579999999999998 4.2600000000000007 2 9.5863860854141905 1.2760209582718016 2 19.228359130624913 2.5592419270330784 2 27.267408818142393 3.7439656603896534 2 32.92502660247343 1.2724332530010607 2 35.075140662608632 5.6420317301150709 2 35.756602069147 3.1951621832034327 2 48.907978893805264 1.2700336985875944 2 60.817619185437835 1.2700000000000002 2 73.591470522966304 1.2700000000000002 2 91.12490457945097 1.2823342509468485 2 </DataArray>
<DataArray Name="forces" NumberOfComponents="3" format="ascii" type="Float32">0.0 0.0 0.0 0.19352797001441355 0.0061832926640045501 0.0 0.0034907882641335287 0.0075355175187935162 0.0 0.002019420991032438 -0.0041971200840761058 0.0 0.0 0.0 0.0 0.0 0.0 0.0 0.08566402720193321 -0.0052542971487415189 0.0 0.0030834860409908091 0.00046852668222430757 0.0 -5.1512910927975497e-06 0.0 0.0 0.0 0.0 0.0 6.1690463075217072e-06 -6.2193496529973466e-06 0.0 -9.7291204237750214e-06 3.5888950884629963e-06 0.0 -4.3184867210069535e-05 9.1033700507331728e-05 0.0 -0.00066126284861334021 0.00024165966556554148 0.0 0.0 0.0 0.0 1.3001434769719265e-05 -1.0306532317283956e-05 0.0 -0.00086998858328661229 -0.00021829288108349084 0.0 0.00081947696854116629 0.00035214666976709477 0.0 0.0 0.0 0.0 1.5064253270751804e-05 6.2586620769143653e-06 0.0 0.0 0.0 0.0 0.00069245581888501375 -0.00039852882918115277 0.0 -0.00081733057111885523 4.5661015778314353e-05 0.0 -0.00010154174548239963 0.00016718030233987976 0.0 -0.00012276038241917252 -0.00017212139102756318 0.0 -0.0015871896980036216 -0.00051240114642278037 0.0 0.00073356819094900789 -0.0075754315139898339 0.0 0.00089904731850987 -0.0063452287885570752 0.0 0.0 0.0 0.0 -0.0012021894844651405 0.0042223407791776319 0.0 0.046848092414754877 -0.0089804354939869054 0.0 -0.0072181415690812933 0.0 0.0 -0.18980061670946577 -0.013718810182798066 0.0 -0.002019420991032438 0.0041971200840761058 0.0 -0.094207812706524785 -0.01497120720155193 0.0 0.0085437855045915698 0.020225504350293449 0.0 0.0 0.0 0.0 0.0014698921421982009 0.00010528715500020776 0.0 4.3184867210069535e-05 -9.1033700507331728e-05 0.0 0.0 0.0 0.0 -1.3001434769719265e-05 1.0306532317283956e-05 0.0 0.0 0.0 0.0 7.7324991983322444e-06 2.0229195571289343e-05 0.0 -0.00069771911673777306 0.00034394322502529585 0.0 5.2632978527593103e-06 5.4585604155856928e-05 0.0 0.0 0.0 0.0 0.0 0.0 0.0 0.0 0.0 0.0 0.0 0.0 0.0 0.0016155565613531239 0.0066101029430096648 0.0 -0.045645902930289736 0.0047580947148088294 0.0 0.0 4.4408920985006262e-16 0.0 -0.15157846919248308 0.011652238318831953 0.0 -0.020654067656516291 -0.019226149742569108 0.0 -0.0014709098974129251 -9.906780534721042e-05 0.0 -2.1522783837860794e-05 1.3631634767635451e-06 0.0 -4.4491582366447736e-06 1.5975507996451239e-05 0.0 2.0596255149746235e-05 5.3637431881558112e-06 0.0 0.00099860717594558589 6.5216192494493985e-05 0.0 -1.5064253270751804e-05 -6.2586620769143653e-06 0.0 0.00081733057111885523 -4.5661015778314353e-05 0.0 -0.08431528822325382 0.0066208893307442857 0.0 </DataArray>
<DataArray Name="radii" format="ascii" type="Float32">1.4200000000000004 1.4200000000000004 1.4200000000000004 1.2700000000000002 1.4200000000000004 1.4200000000000004 1.2700000000000002 1.4200000000000004 1.2700000000000002 1.4200000000000004 1.2700000000000002 1.2700000000000002 1.2700000000000002 1.4200000000000004 1.4200000000000004 1.4200000000000004 1.2700000000000002 1.4200000000000004 1.4200000000000004 1.2700000000000002 1.4200000000000004 1.4200000000000004 1.4200000000000004 1.4200000000000004 1.2700000000000002 1.4200000000000004 1.4200000000000004 1.4200000000000004 1.2700000000000002 1.4200000000000004 1.4200000000000004 1.4200000000000004 1.4200000000000004 1.4200000000000004 1.4200000000000004 1.4200000000000004 1.4200000000000004 1.4200000000000004 1.4200000000000004 1.4200000000000004 1.4200000000000004 1.4200000000000004 1.4200000000000004 1.4200000000000004 1.4200000000000004 1.4200000000000004 1.4200000000000004 1.4200000000000004 1.4200000000000004 1.4200000000000004 1.4200000000000004 1.4200000000000004 1.2700000000000002 1.2700000000000002 1.2700000000000002 1.2700000000000002 1.2700000000000002 1.2700000000000002 1.2700000000000002 1.2700000000000002 1.2700000000000002 1.2700000000000002 </DataArray>
</PointData>
<CellData/>
</Piece>
</UnstructuredGrid>
</VTKFile>
