<?xml version="1.0" ?>
<VTKFile byte_order="LittleEndian" type="UnstructuredGrid" version="0.1">
<UnstructuredGrid>
<Piece NumberOfCells="0" NumberOfPoints="62">
<Points>
<DataArray NumberOfComponents="3" format="ascii" type="Float32">2.1633188244275208 3.214748159550409 2 5.7765435753203143 1.410031548793572 2 5.9801854512288228 3.8506072110641703 2 7.5798826110679025 2.4490756938795069 2 11.647217823583777 3.2953875635153214 2 15.385867916726145 5.1729796468578799 2 15.90650662343803 1.039523563249545 2 25.002820349332421 2.769284152776748 2 27.936383831027634 1 2 29.081263335878628 5.1878628216764247 2 30.536604225209196 1 2 34.04819033523323 2.8820885766735946 2 37.953199390614763 2.2155985550414381 2 42.001550256366691 1.9419797537009069 2 43.947730554526579 3.204617596003732 2 48.132468239230022 2.9396456969976552 2 50.790590816502366 2.0024869598295965 2 53.480574496961601 2.933605406608728 2 58.73245326795346 3.3781373764036604 2 62.802666356682323 1.9531067380888985 2 65.002265727192395 3.3333800001644716 2 69.450596859010105 2.3514349908985097 2 71.408349872735002 1.1500000000000001 2 74.46928894286259 3.6202046959131904 2 76.07896910447478 2.11003170487907 2 77.305911449637748 3.8789848972871228 2 86.816430544180349 2.8475847758634703 2 89.192379626681983 2.7675516585244129 2 92.199342941681266 1.9178640822842228 2 95.038304100487281 3.1603650138042592 2 98.849999999999994 1.1500000000000001 2 1.1500000000000001 1.1500000000000001 2 3.3508135829575219 1.1500000000000001 2 6.9274209872755623 5.9495715395440891 2 13.382414162601464 1.1506608621126753 2 14.834714558090214 2.8966217927513038 2 26.294248987183231 4.8112462223135442 2 29.559109581239397 2.938005048540604 2 39.877494097180964 1.1500000000000001 2 42.066492651769529 4.6199377094508032 2 46.200367657350753 4.1874394731002322 2 55.343021635279428 4.2891440633726718 2 56.842163974838456 2.0234758220055258 2 67.294627166218319 3.1607284651194489 2 69.081395202474368 4.6228384073156699 2 72.207930431982845 3.3096144713830205 2 73.098215280866953 5.4379862596132886 2 75.719294960381376 5.5457680733481123 2 86.026508608098638 5.0115854448841768 2 88.329080381455967 4.8941211366777502 2 96.568435753614949 1.440637096062793 2 98.849999999999994 3.4500000004479343 2 9.0202252679345261 1 2 17.784568461567261 1.731179854790547 2 27.151697221057834 2.8397155585075771 2 32.375431867425839 1.8184474385041425 2 35.137775617221976 4.5841921734775086 2 36.082847173280449 2.8050705011335304 2 49.0599781519172 1 2 61.026970574288477 1 2 74.387177441907198 1 2 90.425733945351354 1 2 </DataArray>
</Points>
<Cells>
<DataArray Name="connectivity" format="ascii" type="Int32">0</DataArray>
<DataArray Name="offsets" format="ascii" type="Int32">0</DataArray>
<DataArray Name="types" format="ascii" type="UInt8">1</DataArray>
</Cells>
<PointData>
<DataArray Name="Points" NumberOfComponents="3" format="ascii" type="Float32">2.1633188244275208 3.214748159550409 2 5.7765435753203143 1.410031548793572 2 5.9801854512288228 3.8506072110641703 2 7.5798826110679025 2.4490756938795069 2 11.647217823583777 3.2953875635153214 2 15.385867916726145 5.1729796468578799 2 15.90650662343803 1.039523563249545 2 25.002820349332421 2.769284152776748 2 27.936383831027634 1 2 29.081263335878628 5.1878628216764247 2 30.536604225209196 1 2 34.04819033523323 2.8820885766735946 2 37.953199390614763 2.2155985550414381 2 42.001550256366691 1.9419797537009069 2 43.947730554526579 3.204617596003732 2 48.132468239230022 2.9396456969976552 2 50.790590816502366 2.0024869598295965 2 53.480574496961601 2.933605406608728 2 58.73245326795346 3.3781373764036604 2 62.802666356682323 1.9531067380888985 2 65.002265727192395 3.3333800001644716 2 69.450596859010105 2.3514349908985097 2 71.408349872735002 1.1500000000000001 2 74.46928894286259 3.6202046959131904 2 76.07896910447478 2.11003170487907 2 77.305911449637748 3.8789848972871228 2 86.816430544180349 2.8475847758634703 2 89.192379626681983 2.7675516585244129 2 92.199342941681266 1.9178640822842228 2 95.038304100487281 3.1603650138042592 2 98.849999999999994 1.1500000000000001 2 1.1500000000000001 1.1500000000000001 2 3.3508135829575219 1.1500000000000001 2 6.9274209872755623 5.9495715395440891 2 13.382414162601464 1.1506608621126753 2 14.834714558090214 2.8966217927513038 2 26.294248987183231 4.8112462223135442 2 29.559109581239397 2.938005048540604 2 39.877494097180964 1.1500000000000001 2 42.066492651769529 4.6199377094508032 2 46.200367657350753 4.1874394731002322 2 55.343021635279428 4.2891440633726718 2 56.842163974838456 2.0234758220055258 2 67.294627166218319 3.1607284651194489 2 69.081395202474368 4.6228384073156699 2 72.207930431982845 3.3096144713830205 2 73.098215280866953 5.4379862596132886 2 75.719294960381376 5.5457680733481123 2 86.026508608098638 5.0115854448841768 2 88.329080381455967 4.8941211366777502 2 96.568435753614949 1.440637096062793 2 98.849999999999994 3.4500000004479343 2 9.0202252679345261 1 2 17.784568461567261 1.731179854790547 2 27.151697221057834 2.8397155585075771 2 32.375431867425839 1.8184474385041425 2 35.137775617221976 4.5841921734775086 2 36.082847173280449 2.8050705011335304 2 49.0599781519172 1 2 61.026970574288477 1 2 74.387177441907198 1 2 90.425733945351354 1 2 </DataArray>
<DataArray Name="forces" NumberOfComponents="3" format="ascii" type="Float32">0.0 0.0 0.0 0.058109015411768168 0.0064915402151257077 0.0 -0.00047235964595158692 -0.0010466943113258186 0.0 -0.019249983640653338 0.019822612427889873 0.0 0.0 0.0 0.0 0.0040601896498250857 0.016769279282659203 0.0 0.0 0.0 0.0 0.0 0.0 0.0 2.8495529529931768e-05 -6.68125908067758e-05 0.0 0.0 0.0 0.0 -0.0053975545432299989 -0.0024146054042044653 0.0 -0.014471258546874982 0.00053830444845675174 0.0 -0.02130497892675946 0.01202700951719661 0.0 -0.0068321491838543441 -0.0044325441542848055 0.0 0.0068321491838543441 0.0044325441542848055 0.0 0.0 0.0 0.0 0.0 0.0 0.0 0.0 0.0 0.0 0.0 0.0 0.0 0.0 0.0 0.0 4.1886514678883618e-06 3.4244643729666827e-05 0.0 0.0010796914457315415 -0.00049716116214572261 0.0 -0.0010762632439402999 -0.0029136653969197047 0.0 -0.016128361622055925 0.015316424660153798 0.0 0.022684614473796223 -0.010808518181038652 0.0 0.0 0.0 0.0 0.00032360413129318527 -0.00089035891157502592 0.0 -0.0016523824140148311 0.0037778012477836537 0.0 -0.00071904702489888244 0.00030394968481928719 0.0 0.0 0.0 0.0 0.0 0.0 0.0 -0.0011285603592772198 0.0 0.0 -0.056980455052490948 -0.0064915402151257077 0.0 0.00047235964595158692 0.0010466943113258186 0.0 0.017759309183849915 0.00038402046690488227 0.0 -0.0040601896498250857 -0.016769279282659203 0.0 0.0 0.0 0.0 0.0 0.0 0.0 0.02130497892675946 -0.01202700951719661 0.0 0.0 0.0 0.0 0.0 0.0 0.0 0.0 0.0 0.0 0.0 0.0 0.0 -0.0010638530131230053 0.00039926394018881343 0.0 -1.5838432608536315e-05 9.7897221956909139e-05 0.0 0.0010762632439402999 0.0029136653969197047 0.0 0.0 0.0 0.0 0.0 0.0 0.0 -0.0023409735788011902 0.00099195593045300098 0.0 0.0020173694475080048 -0.00010159701887797513 0.0 0.0 0.0 0.0 0.0 0.0 0.0 0.019249983640653338 -0.019822612427889873 0.0 0.0 0.0 0.0 -2.8495529529931768e-05 6.68125908067758e-05 0.0 0.0053975545432299989 0.0024146054042044653 0.0 -0.00040855967723996063 0.00078952861120345239 0.0 0.014879818224114943 -0.0013278330596602041 0.0 0.0 0.0 0.0 0.0 0.0 0.0 -0.0065562528517403001 -0.0045079064791151459 0.0 0.002143086443994786 -0.0030763070729808431 0.0 </DataArray>
<DataArray Name="radii" format="ascii" type="Float32">1.1500000000000001 1.1500000000000001 1.1500000000000001 1 1.1500000000000001 1.1500000000000001 1 1.1500000000000001 1 1.1500000000000001 1 1 1 1.1500000000000001 1.1500000000000001 1.1500000000000001 1 1.1500000000000001 1.1500000000000001 1 1.1500000000000001 1.1500000000000001 1.1500000000000001 1.1500000000000001 1 1.1500000000000001 1.1500000000000001 1.1500000000000001 1 1.1500000000000001 1.1500000000000001 1.1500000000000001 1.1500000000000001 1.1500000000000001 1.1500000000000001 1.1500000000000001 1.1500000000000001 1.1500000000000001 1.1500000000000001 1.1500000000000001 1.1500000000000001 1.1500000000000001 1.1500000000000001 1.1500000000000001 1.1500000000000001 1.1500000000000001 1.1500000000000001 1.1500000000000001 1.1500000000000001 1.1500000000000001 1.1500000000000001 1.1500000000000001 1 1 1 1 1 1 1 1 1 1 </DataArray>
</PointData>
<CellData/>
</Piece>
</UnstructuredGrid>
</VTKFile>
