<?xml version="1.0" ?>
<VTKFile byte_order="LittleEndian" type="UnstructuredGrid" version="0.1">
<UnstructuredGrid>
<Piece NumberOfCells="0" NumberOfPoints="52">
<Points>
<DataArray NumberOfComponents="3" format="ascii" type="Float32">12.700615944535592 1.1 2 21.262997303564784 6.109442358687601 2 20.853134443285253 1 2 21.796524814328574 3.1109214038262825 2 22.830973911232856 1 2 35.489886697680447 1 2 44.824134373540829 1 2 46.901878949684374 1.1 2 51.412495678561164 1 2 53.51011311568584 1.1000054372047567 2 58.369086482144162 1.1 2 65.084959852064259 1.1 2 67.115214082932596 1 2 80.756792325175397 1.5000000000000004 2 85.406220836893198 4.2920765157431378 2 88.005844821948074 1 2 89.914709587116647 1 2 94.045729322088178 1.1 2 74.840609363656682 14.327261770784027 2 83.651114538927203 14.341678002513644 2 77.746068361293197 1.5000000000000004 2 86.567542060593368 6.951182426292819 2 77.224322179851896 13.710145048991883 2 77.777277412470596 6.2747978730690415 2 83.584808769956808 6.4620814784220224 2 80.68852012123206 14.222076616789463 2 75.275096711309175 1 2 88.634555200994356 14.81523895153755 2 81.914176536206753 8.8616445073341605 2 80.741292219279572 6.3275742570349758 2 83.20256263811109 1 2 78.696733797751534 15.709652497839681 2 73.517687877784539 3.7370457013776877 2 89.854464627635423 9.1471174098087253 2 79.293623011291075 11.611516253683204 2 85.212671275683761 11.781022440429298 2 89.76619644415581 11.628679443839253 2 79.24517885956395 3.9246660499091623 2 85.624425631906888 1.5000000000000004 2 82.071078082763322 16.842972431125464 2 76.339597556381477 3.9580349834844895 2 88.873082216715602 7.4632824040558194 2 75.152888796423838 12.321905186474893 2 82.255925836598465 11.689014504115868 2 86.163204511707448 14.107053727428015 2 82.533123618794605 3.8232249910194054 2 75.337580803642282 6.2060951656765377 2 79.159271724673104 8.7813534895424699 2 87.503383587123508 12.616834835187385 2 87.401269894877885 9.7453446675193955 2 76.698694247461177 8.3830412535204832 2 84.723012939385086 9.1285390097430792 2 </DataArray>
</Points>
<Cells>
<DataArray Name="connectivity" format="ascii" type="Int32">0</DataArray>
<DataArray Name="offsets" format="ascii" type="Int32">0</DataArray>
<DataArray Name="types" format="ascii" type="UInt8">1</DataArray>
</Cells>
<PointData>
<DataArray Name="Points" NumberOfComponents="3" format="ascii" type="Float32">12.700615944535592 1.1 2 21.262997303564784 6.109442358687601 2 20.853134443285253 1 2 21.796524814328574 3.1109214038262825 2 22.830973911232856 1 2 35.489886697680447 1 2 44.824134373540829 1 2 46.901878949684374 1.1 2 51.412495678561164 1 2 53.51011311568584 1.1000054372047567 2 58.369086482144162 1.1 2 65.084959852064259 1.1 2 67.115214082932596 1 2 80.756792325175397 1.5000000000000004 2 85.406220836893198 4.2920765157431378 2 88.005844821948074 1 2 89.914709587116647 1 2 94.045729322088178 1.1 2 74.840609363656682 14.327261770784027 2 83.651114538927203 14.341678002513644 2 77.746068361293197 1.5000000000000004 2 86.567542060593368 6.951182426292819 2 77.224322179851896 13.710145048991883 2 77.777277412470596 6.2747978730690415 2 83.584808769956808 6.4620814784220224 2 80.68852012123206 14.222076616789463 2 75.275096711309175 1 2 88.634555200994356 14.81523895153755 2 81.914176536206753 8.8616445073341605 2 80.741292219279572 6.3275742570349758 2 83.20256263811109 1 2 78.696733797751534 15.709652497839681 2 73.517687877784539 3.7370457013776877 2 89.854464627635423 9.1471174098087253 2 79.293623011291075 11.611516253683204 2 85.212671275683761 11.781022440429298 2 89.76619644415581 11.628679443839253 2 79.24517885956395 3.9246660499091623 2 85.624425631906888 1.5000000000000004 2 82.071078082763322 16.842972431125464 2 76.339597556381477 3.9580349834844895 2 88.873082216715602 7.4632824040558194 2 75.152888796423838 12.321905186474893 2 82.255925836598465 11.689014504115868 2 86.163204511707448 14.107053727428015 2 82.533123618794605 3.8232249910194054 2 75.337580803642282 6.2060951656765377 2 79.159271724673104 8.7813534895424699 2 87.503383587123508 12.616834835187385 2 87.401269894877885 9.7453446675193955 2 76.698694247461177 8.3830412535204832 2 84.723012939385086 9.1285390097430792 2 </DataArray>
<DataArray Name="forces" NumberOfComponents="3" format="ascii" type="Float32">0.003374664972555441 -0.0046890572536843894 0.0 -0.00018557587137869175 0.023393369085214815 0.0 0.0031402915282338385 -0.0018457013062452567 0.0 7.4023295403245694e-05 -7.0068631680429734e-06 0.0 0.0044835762327464709 -0.022169476873285791 0.0 0.0026769708569641046 -0.0087653162109476469 0.0 0.0063552746235882134 -0.025675263317865786 0.0 0.008079540911077784 -0.027300811137048239 0.0 0.0 0.0 0.0 0.0 0.0 0.0 0.00088966253926795781 -0.015604244765117872 0.0 -0.013317775424989103 -0.015908069283483681 0.0 -0.009962574253629345 -0.020575905055238666 0.0 0.00038748172909544576 -0.24586017038802549 0.0 -0.062679111835938495 0.026153660891830972 0.0 -0.022578072523071244 -0.087650536173818322 0.0 -0.020244049139548817 -0.0083225788303672513 0.0 -0.01094925908023249 -0.0274253376964037 0.0 -0.017693067792124238 0.01725481890598967 0.0 -0.021190646638814176 0.075472136793044528 0.0 0.0078931705222109599 -0.2694551154955166 0.0 0.057583144553554497 0.076206995330596633 0.0 -0.019893470236482743 0.036710439816884627 0.0 -0.0024035902511251456 -0.076974334208826684 0.0 -0.057084197543818653 -0.12346889091333302 0.0 0.027945964723726333 0.049345713295037175 0.0 0.0 0.0 0.0 0.011622376726030658 0.022605445159494808 0.0 -0.095487576861425671 0.016585304629107428 0.0 0.029937047114163964 0.062173484909627277 0.0 -0.024911381378019952 -0.005139496246809391 0.0 -0.0089291692913681699 0.027023237517052268 0.0 -0.03764048302246488 0.0080389222051653678 0.0 0.060260303892569395 0.020429699073956489 0.0 0.00020988485550389128 0.0050496195651140996 0.0 0.0082866273995268729 -0.061339475852640366 0.0 0.06425309058014507 0.030444920127816522 0.0 -0.030416989877753847 0.016863199770279759 0.0 -0.027818227432204655 -0.19579152351328538 0.0 0.0034714159058605067 0.017839312127719525 0.0 0.053414980374916744 0.028880514151826138 0.0 -0.0077054136735457898 0.0072586550430308325 0.0 -0.015353094742090262 0.016520092987011313 0.0 -0.0047971683571375462 0.037070956904734262 0.0 0.016108880434744895 0.038414256267164375 0.0 0.065121909288991198 0.088319919539182612 0.0 -0.0097343376809013761 0.020315651127630278 0.0 0.093437207507408263 0.086730265810377127 0.0 0.012183994984522779 0.026703480099377699 0.0 -0.087934808469779469 -0.012940274381964339 0.0 -0.076280435355787796 0.048530367324246287 0.0 0.13302039704981858 0.15680049141898211 0.0 </DataArray>
<DataArray Name="radii" format="ascii" type="Float32">1.1 1.1 1 1.2000000000000002 1 1 1 1.1 1 1.1 1.1 1.1 1 1.5000000000000004 1.5000000000000004 1 1 1.1 1 1.5000000000000004 1.5000000000000004 1.5000000000000004 1.5000000000000004 1.4000000000000004 1.5000000000000004 1.5000000000000004 1 1.5000000000000004 1.4000000000000004 1.5000000000000004 1 1 1.5000000000000004 1 1.5000000000000004 1.5000000000000004 1.5000000000000004 1.5000000000000004 1.5000000000000004 1.5000000000000004 1.5000000000000004 1 1 1.5000000000000004 1 1.5000000000000004 1 1.5000000000000004 1 1.5000000000000004 1 1.4000000000000004 </DataArray>
</PointData>
<CellData/>
</Piece>
</UnstructuredGrid>
</VTKFile>
