<?xml version="1.0" ?>
<VTKFile byte_order="LittleEndian" type="UnstructuredGrid" version="0.1">
<UnstructuredGrid>
<Piece NumberOfCells="0" NumberOfPoints="23">
<Points>
<DataArray NumberOfComponents="3" format="ascii" type="Float32">9.8597847589513812 1.1 2 18.729782328822797 2.5511410430355945 2 20.145070348744671 1 2 22.047542672628964 2.1017493815340846 2 23.951062953634462 1 2 35.384906250041517 1 2 44.178025704378477 1 2 46.275692324948707 1.1017490707006623 2 52.418327625437136 1 2 54.976905132727744 1.1 2 59.594586720520894 1.1 2 64.486301303143364 1.1 2 67.674904105028347 1 2 80.489528070970437 1.3363711429844061 2 82.942358265690586 1 2 85.327352913032399 1 2 87.887968981660435 1 2 93.900621694277518 1.1 2 79.307170596450419 4.242732779453668 2 82.283064712240517 4.9258677239725426 2 78.377335103345686 1.651285232950831 2 83.1230360657201 2.9678921708326906 2 80.982577657669225 3.2134990486378858 2 </DataArray>
</Points>
<Cells>
<DataArray Name="connectivity" format="ascii" type="Int32">0</DataArray>
<DataArray Name="offsets" format="ascii" type="Int32">0</DataArray>
<DataArray Name="types" format="ascii" type="UInt8">1</DataArray>
</Cells>
<PointData>
<DataArray Name="Points" NumberOfComponents="3" format="ascii" type="Float32">9.8597847589513812 1.1 2 18.729782328822797 2.5511410430355945 2 20.145070348744671 1 2 22.047542672628964 2.1017493815340846 2 23.951062953634462 1 2 35.384906250041517 1 2 44.178025704378477 1 2 46.275692324948707 1.1017490707006623 2 52.418327625437136 1 2 54.976905132727744 1.1 2 59.594586720520894 1.1 2 64.486301303143364 1.1 2 67.674904105028347 1 2 80.489528070970437 1.3363711429844061 2 82.942358265690586 1 2 85.327352913032399 1 2 87.887968981660435 1 2 93.900621694277518 1.1 2 79.307170596450419 4.242732779453668 2 82.283064712240517 4.9258677239725426 2 78.377335103345686 1.651285232950831 2 83.1230360657201 2.9678921708326906 2 80.982577657669225 3.2134990486378858 2 </DataArray>
<DataArray Name="forces" NumberOfComponents="3" format="ascii" type="Float32">0.017073822157927347 -0.016861873582497661 0.0 0.0002355041428920132 0.0018149153165865333 0.0 -0.00050326615068583169 -0.0019992628281649749 0.0 -0.0020231512645638933 0.0029279035286645101 0.0 -0.0011148113272783917 -0.0066050051888600411 0.0 -0.00018023806371432797 -0.0017695912891550918 0.0 0.0 0.0 0.0 0.0 0.0 0.0 0.0030719966247887082 -0.0078056059845285873 0.0 -0.00038337622606205015 -0.00016130179229289132 0.0 0.0 0.0 0.0 0.0 0.0 0.0 0.0 0.0 0.0 0.064846701447306296 -0.0096589038418945644 0.0 0.0 0.0 0.0 0.0 0.0 0.0 0.0 0.0 0.0 0.00057998454744101252 -6.1659233708704679e-05 0.0 0.029804862381739895 0.012745220490339732 0.0 0.015089550197028378 0.061626640725184506 0.0 -0.064109553184479903 0.0097458177863013508 0.0 0.058255636637455255 -0.032055638254189091 0.0 -0.073345186834483628 -0.029571002470995422 0.0 </DataArray>
<DataArray Name="radii" format="ascii" type="Float32">1.1 1.1 1 1.2000000000000002 1 1 1 1.1 1 1.1 1.1 1.1 1 1 1 1 1 1.1 1 1 1 1 1 </DataArray>
</PointData>
<CellData/>
</Piece>
</UnstructuredGrid>
</VTKFile>
