<?xml version="1.0" ?>
<VTKFile byte_order="LittleEndian" type="UnstructuredGrid" version="0.1">
<UnstructuredGrid>
<Piece NumberOfCells="0" NumberOfPoints="31">
<Points>
<DataArray NumberOfComponents="3" format="ascii" type="Float32">1.4100000000000001 1.4100000000000001 2 4.2260032360331081 1.4100000000000001 2 6.0878453524492295 3.5230483924722122 2 7.4313910173298696 1.2400000000000002 2 12.253651037813977 1.4100000000000001 2 14.544748398941762 3.0510987449631028 2 16.47775459018974 1.2400000000000002 2 25.757477331210257 2.711411229719086 2 27.960913583742741 1.2400000000000002 2 29.56388125690572 3.368992744422906 2 31.18440497536476 1.2400000000000002 2 33.517059825294773 1.720424887524669 2 37.83949212114522 1.2475022998849385 2 40.599157096571311 1.4153428738985689 2 42.8296893387135 3.0201852956364177 2 47.978586759715853 2.9144783310443514 2 50.045349932175569 1.2400000000000002 2 53.893332525300522 2.780343161122647 2 57.776769794881638 2.5892447029398808 2 62.125693489478898 1.2471713553491048 2 66.204544069392142 2.9004161307265783 2 69.368353829690392 2.727293967030255 2 71.864036995248739 1.4100000000000001 2 74.285330311952251 2.8541463489005481 2 76.385583926573247 1.2400000000000002 2 77.25006205956791 3.7503815324412808 2 86.491448441506179 2.9841692646808653 2 89.345909311268628 2.9256506364358956 2 91.330114024757975 1.2433263502240277 2 95.874035329349383 2.217397529050888 2 98.59 1.4100000000000001 2 </DataArray>
</Points>
<Cells>
<DataArray Name="connectivity" format="ascii" type="Int32">0</DataArray>
<DataArray Name="offsets" format="ascii" type="Int32">0</DataArray>
<DataArray Name="types" format="ascii" type="UInt8">1</DataArray>
</Cells>
<PointData>
<DataArray Name="Points" NumberOfComponents="3" format="ascii" type="Float32">1.4100000000000001 1.4100000000000001 2 4.2260032360331081 1.4100000000000001 2 6.0878453524492295 3.5230483924722122 2 7.4313910173298696 1.2400000000000002 2 12.253651037813977 1.4100000000000001 2 14.544748398941762 3.0510987449631028 2 16.47775459018974 1.2400000000000002 2 25.757477331210257 2.711411229719086 2 27.960913583742741 1.2400000000000002 2 29.56388125690572 3.368992744422906 2 31.18440497536476 1.2400000000000002 2 33.517059825294773 1.720424887524669 2 37.83949212114522 1.2475022998849385 2 40.599157096571311 1.4153428738985689 2 42.8296893387135 3.0201852956364177 2 47.978586759715853 2.9144783310443514 2 50.045349932175569 1.2400000000000002 2 53.893332525300522 2.780343161122647 2 57.776769794881638 2.5892447029398808 2 62.125693489478898 1.2471713553491048 2 66.204544069392142 2.9004161307265783 2 69.368353829690392 2.727293967030255 2 71.864036995248739 1.4100000000000001 2 74.285330311952251 2.8541463489005481 2 76.385583926573247 1.2400000000000002 2 77.25006205956791 3.7503815324412808 2 86.491448441506179 2.9841692646808653 2 89.345909311268628 2.9256506364358956 2 91.330114024757975 1.2433263502240277 2 95.874035329349383 2.217397529050888 2 98.59 1.4100000000000001 2 </DataArray>
<DataArray Name="forces" NumberOfComponents="3" format="ascii" type="Float32">-0.019863927661130987 0.0 0.0 0.011043885262859068 -0.0099025965839656151 0.0 0.0075988322016662738 0.011923118321959674 0.0 -0.010485798509901761 -0.0013152981009022971 0.0 0.0044828199431606215 -0.0049317588658857429 0.0 0.0054363365767484736 0.010325233302122212 0.0 -0.00011769027577843757 -0.0058412691004666546 0.0 0.0017470340699925445 0.0020728653306685851 0.0 0.00018703668575468428 -0.00012451994755642817 0.0 -0.016045833533943309 0.021384728171106367 0.0 0.016045833533943309 -0.021384728171106367 0.0 -0.069602138577981768 0.023270314598400798 0.0 -0.061144431804849152 -0.0037187544949287433 0.0 0.061144431804849152 0.0037187544949287433 0.0 -0.00093176262093008116 0.00143088545260941 0.0 -0.0036047184837934235 0.0074420832086856386 0.0 0.0060529650196358021 -0.0049045766555790129 0.0 0.0030745412526715526 0.0064162597698972463 0.0 -0.004017726117041499 0.0065875928880669548 0.0 -0.00013613506874183764 0.0011964289228467296 0.0 0.0032903511287898811 0.0051170002308007709 0.0 -0.0030352198873407274 0.0045427617705248308 0.0 0.0005356756877353229 -0.0052107569855790181 0.0 0.00096273788082196568 0.0052407295691429996 0.0 -0.00024563312953988087 -0.013332447968614205 0.0 0.0036845339636090244 0.010703988004493644 0.0 0.0037241822721121561 0.0053821868988672885 0.0 -0.00035323101052215652 0.00029115686093109908 0.0 -0.042334654074077313 0.0023152108925165978 0.0 -0.04223483250222354 0.018633442991837012 0.0 0.05022011724925269 -0.014764195829647563 0.0 </DataArray>
<DataArray Name="radii" format="ascii" type="Float32">1.4100000000000001 1.4100000000000001 1.4100000000000001 1.2400000000000002 1.4100000000000001 1.4100000000000001 1.2400000000000002 1.4100000000000001 1.2400000000000002 1.4100000000000001 1.2400000000000002 1.2400000000000002 1.2400000000000002 1.4100000000000001 1.4100000000000001 1.4100000000000001 1.2400000000000002 1.4100000000000001 1.4100000000000001 1.2400000000000002 1.4100000000000001 1.4100000000000001 1.4100000000000001 1.4100000000000001 1.2400000000000002 1.4100000000000001 1.4100000000000001 1.4100000000000001 1.2400000000000002 1.4100000000000001 1.4100000000000001 </DataArray>
</PointData>
<CellData/>
</Piece>
</UnstructuredGrid>
</VTKFile>
