<?xml version="1.0" ?>
<VTKFile byte_order="LittleEndian" type="UnstructuredGrid" version="0.1">
<UnstructuredGrid>
<Piece NumberOfCells="0" NumberOfPoints="37">
<Points>
<DataArray NumberOfComponents="3" format="ascii" type="Float32">12.458303740372971 1.1 2 20.774605593631314 5.1027488372812675 2 21.022691243110142 1 2 22.174588160379404 3.0297038764100277 2 23.021425653847391 1 2 35.301459373968541 1 2 44.555675824718598 1 2 46.654924264932959 1.1 2 51.482207272446935 1 2 53.56605393912897 1.1024428487803728 2 57.924141679078915 1.1 2 65.630807204625128 1.1 2 67.724217998935885 1 2 80.277132695533979 1.4000000000000004 2 84.919923531654291 1.4000000000000004 2 87.332058825090854 1 2 89.221368947616241 1 2 94.03925708304449 1.1 2 77.25948579425021 10.277202570250447 2 82.768034526207074 11.057038786876312 2 77.668596425744269 1.4000000000000004 2 85.588634441214197 5.7021301240630935 2 78.518680469039836 8.2568490361204478 2 78.960203551758354 3.6868476889077866 2 84.245657735002268 3.677224034447935 2 81.354314357530754 8.6160290130189647 2 75.233810772600833 1 2 85.612073257681359 11.009291679654538 2 82.892278085493047 6.2197004455658425 2 81.866076842215165 3.7679862694866526 2 82.712479968719208 1 2 80.05348205986833 10.643875942542412 2 76.3204755698155 3.878597360612809 2 87.915172531871576 5.902400687501494 2 80.297524608952898 6.0899559443010371 2 84.17508051569618 8.6369533198160369 2 86.90029888428613 8.1389569808950508 2 </DataArray>
</Points>
<Cells>
<DataArray Name="connectivity" format="ascii" type="Int32">0</DataArray>
<DataArray Name="offsets" format="ascii" type="Int32">0</DataArray>
<DataArray Name="types" format="ascii" type="UInt8">1</DataArray>
</Cells>
<PointData>
<DataArray Name="Points" NumberOfComponents="3" format="ascii" type="Float32">12.458303740372971 1.1 2 20.774605593631314 5.1027488372812675 2 21.022691243110142 1 2 22.174588160379404 3.0297038764100277 2 23.021425653847391 1 2 35.301459373968541 1 2 44.555675824718598 1 2 46.654924264932959 1.1 2 51.482207272446935 1 2 53.56605393912897 1.1024428487803728 2 57.924141679078915 1.1 2 65.630807204625128 1.1 2 67.724217998935885 1 2 80.277132695533979 1.4000000000000004 2 84.919923531654291 1.4000000000000004 2 87.332058825090854 1 2 89.221368947616241 1 2 94.03925708304449 1.1 2 77.25948579425021 10.277202570250447 2 82.768034526207074 11.057038786876312 2 77.668596425744269 1.4000000000000004 2 85.588634441214197 5.7021301240630935 2 78.518680469039836 8.2568490361204478 2 78.960203551758354 3.6868476889077866 2 84.245657735002268 3.677224034447935 2 81.354314357530754 8.6160290130189647 2 75.233810772600833 1 2 85.612073257681359 11.009291679654538 2 82.892278085493047 6.2197004455658425 2 81.866076842215165 3.7679862694866526 2 82.712479968719208 1 2 80.05348205986833 10.643875942542412 2 76.3204755698155 3.878597360612809 2 87.915172531871576 5.902400687501494 2 80.297524608952898 6.0899559443010371 2 84.17508051569618 8.6369533198160369 2 86.90029888428613 8.1389569808950508 2 </DataArray>
<DataArray Name="forces" NumberOfComponents="3" format="ascii" type="Float32">0.00027044893512138387 -6.2949436439831117e-05 0.0 3.4126002712286543e-05 6.2942485009794474e-05 0.0 -0.00095438673991310452 0.0 0.0 0.00010143608679716331 0.00038398625668599625 0.0 -0.0013055348441933178 -0.0015178193125915858 0.0 0.00089177941504701682 -0.00084714023520424217 0.0 -6.1797593410755394e-05 -0.00024496753893448717 0.0 0.00050348569781916348 -0.0022493764516118508 0.0 0.0042651103494675017 -0.0010419084366456444 0.0 -0.009389123960548541 0.00013776264682976121 0.0 -0.021383116984340946 -0.0032347535659933879 0.0 0.0046364519104404173 -0.00076073239018744222 0.0 0.00078539399709756479 -3.7509317280221996e-05 0.0 -0.11441077980352629 -0.0091173189469368685 0.0 -0.078163753631912469 -0.013161820158905199 0.0 0.062795463034230059 -0.013451002415083955 0.0 -0.046241634505549606 -0.010242505075388857 0.0 0.0 0.0 0.0 0.0031472727054717626 0.0016555960619613018 0.0 0.0040531582959384103 0.013790631624730862 0.0 0.11283587969535201 -0.0037362702007633017 0.0 0.052752250055542391 0.007531230371489981 0.0 -0.010245603949402935 0.015832701816728346 0.0 -0.028402238113529658 -0.054115616730182982 0.0 -0.0064753265146425855 -0.010082126572254114 0.0 -0.010073017985691206 -0.02082099924346353 0.0 -0.082400251401024013 -0.021244376957888063 0.0 -0.002324785537744848 0.00061297730071228364 0.0 -0.06208769471599826 -0.015229644266701153 0.0 0.016577940525441679 0.026389955091142926 0.0 0.077108635056806388 -0.020810418427436864 0.0 -0.0068664474773318385 0.010534302069095527 0.0 0.035140427118108344 0.017418540484652592 0.0 -0.026245143142280478 0.0029373028618143479 0.0 0.06199768378090724 0.039976215839579929 0.0 0.025739770057791371 0.021929793272861309 0.0 -0.018901765118846107 -0.0049450466982625917 0.0 </DataArray>
<DataArray Name="radii" format="ascii" type="Float32">1.1 1.1 1 1.2000000000000002 1 1 1 1.1 1 1.1 1.1 1.1 1 1.4000000000000004 1.4000000000000004 1 1 1.1 1 1.4000000000000004 1.4000000000000004 1.4000000000000004 1.4000000000000004 1.3000000000000003 1 1.4000000000000004 1 1.4000000000000004 1.3000000000000003 1.4000000000000004 1 1 1.4000000000000004 1 1.4000000000000004 1.4000000000000004 1.4000000000000004 </DataArray>
</PointData>
<CellData/>
</Piece>
</UnstructuredGrid>
</VTKFile>
