<?xml version="1.0" ?>
<VTKFile byte_order="LittleEndian" type="UnstructuredGrid" version="0.1">
<UnstructuredGrid>
<Piece NumberOfCells="0" NumberOfPoints="62">
<Points>
<DataArray NumberOfComponents="3" format="ascii" type="Float32">2.4967194211835588 3.9402102114875031 2 6.8784690895360603 1.4697353271543674 2 5.4334305632354694 3.9016934246274095 2 8.1958684145465277 3.7325260697937215 2 11.707365071302297 3.5899447803169009 2 15.720236902622833 6.6395299453883947 2 16.756184585669271 1.2400000000000002 2 24.608753126873612 3.2527132343361553 2 27.918561937145633 1.2400000000000002 2 28.794487793899801 6.3913346082687665 2 30.398505312033588 1.2400000000000002 2 33.335725486379282 3.7332473979156324 2 38.168359256496657 3.67082044245296 2 42.225577488605033 1.8117357845102322 2 44.449423059079187 3.4860155444263161 2 48.510969668828317 3.8433126752364104 2 50.892007520673218 2.7257574987658102 2 53.439641415364164 3.3764823584359358 2 59.060615839568264 3.5776071970828278 2 63.12911838517541 2.1868197780583816 2 63.461135185130068 4.7971195312784758 2 68.64542269736566 2.9745876031863205 2 70.943393287567531 1.3900000000000003 2 73.72267942844563 5.433515409395433 2 75.089393776849491 3.1809944010457625 2 76.762165073113977 5.2121483831865723 2 87.152319144989292 3.3883210916727662 2 89.929943969698229 3.5577770824579376 2 92.570652761014927 3.4293627246663503 2 95.068366206898702 4.2502941345581187 2 98.61 1.3900000000000003 2 1.3900000000000003 1.3900000000000003 2 4.069023472840728 1.3900000000000003 2 7.0557188945772218 6.1622227037459743 2 14.09157121361191 1.3955752407947792 2 15.378157512748182 3.8910423321669625 2 25.776195062171745 5.8310724709579294 2 29.831531320490189 3.8078254506476243 2 39.477623790012998 1.3900000000000003 2 41.921369458983094 4.7020344485932526 2 46.314638240122193 5.5475101079259179 2 55.561936119621166 5.1722840830519736 2 56.475022356070603 2.5464541534250742 2 66.181746826140042 4.2026633163908365 2 68.866891470013613 5.7386239454262462 2 71.249087423952545 4.1659137385569007 2 71.687525036223064 7.3152615965357999 2 75.408376824857754 7.6404604269798337 2 87.654634123960037 7.0014830930320766 2 90.340618603101902 6.3116443341350124 2 95.865860312813453 1.6185712078201693 2 98.609999999999999 4.1700000000000008 2 9.3462435727975475 1.2449391488576544 2 18.928443940111745 2.3023869585586461 2 27.207039175593316 3.6161541469384888 2 32.877912942843764 1.2958828422137145 2 35.097623191163358 5.5386218976377615 2 35.744837032785163 3.1445953915320581 2 48.906052551203601 1.2400000000000002 2 60.837455191905867 1.2400147929078784 2 73.522969643757818 1.2400000000000002 2 91.214859685568015 1.2962932064431307 2 </DataArray>
</Points>
<Cells>
<DataArray Name="connectivity" format="ascii" type="Int32">0</DataArray>
<DataArray Name="offsets" format="ascii" type="Int32">0</DataArray>
<DataArray Name="types" format="ascii" type="UInt8">1</DataArray>
</Cells>
<PointData>
<DataArray Name="Points" NumberOfComponents="3" format="ascii" type="Float32">2.4967194211835588 3.9402102114875031 2 6.8784690895360603 1.4697353271543674 2 5.4334305632354694 3.9016934246274095 2 8.1958684145465277 3.7325260697937215 2 11.707365071302297 3.5899447803169009 2 15.720236902622833 6.6395299453883947 2 16.756184585669271 1.2400000000000002 2 24.608753126873612 3.2527132343361553 2 27.918561937145633 1.2400000000000002 2 28.794487793899801 6.3913346082687665 2 30.398505312033588 1.2400000000000002 2 33.335725486379282 3.7332473979156324 2 38.168359256496657 3.67082044245296 2 42.225577488605033 1.8117357845102322 2 44.449423059079187 3.4860155444263161 2 48.510969668828317 3.8433126752364104 2 50.892007520673218 2.7257574987658102 2 53.439641415364164 3.3764823584359358 2 59.060615839568264 3.5776071970828278 2 63.12911838517541 2.1868197780583816 2 63.461135185130068 4.7971195312784758 2 68.64542269736566 2.9745876031863205 2 70.943393287567531 1.3900000000000003 2 73.72267942844563 5.433515409395433 2 75.089393776849491 3.1809944010457625 2 76.762165073113977 5.2121483831865723 2 87.152319144989292 3.3883210916727662 2 89.929943969698229 3.5577770824579376 2 92.570652761014927 3.4293627246663503 2 95.068366206898702 4.2502941345581187 2 98.61 1.3900000000000003 2 1.3900000000000003 1.3900000000000003 2 4.069023472840728 1.3900000000000003 2 7.0557188945772218 6.1622227037459743 2 14.09157121361191 1.3955752407947792 2 15.378157512748182 3.8910423321669625 2 25.776195062171745 5.8310724709579294 2 29.831531320490189 3.8078254506476243 2 39.477623790012998 1.3900000000000003 2 41.921369458983094 4.7020344485932526 2 46.314638240122193 5.5475101079259179 2 55.561936119621166 5.1722840830519736 2 56.475022356070603 2.5464541534250742 2 66.181746826140042 4.2026633163908365 2 68.866891470013613 5.7386239454262462 2 71.249087423952545 4.1659137385569007 2 71.687525036223064 7.3152615965357999 2 75.408376824857754 7.6404604269798337 2 87.654634123960037 7.0014830930320766 2 90.340618603101902 6.3116443341350124 2 95.865860312813453 1.6185712078201693 2 98.609999999999999 4.1700000000000008 2 9.3462435727975475 1.2449391488576544 2 18.928443940111745 2.3023869585586461 2 27.207039175593316 3.6161541469384888 2 32.877912942843764 1.2958828422137145 2 35.097623191163358 5.5386218976377615 2 35.744837032785163 3.1445953915320581 2 48.906052551203601 1.2400000000000002 2 60.837455191905867 1.2400147929078784 2 73.522969643757818 1.2400000000000002 2 91.214859685568015 1.2962932064431307 2 </DataArray>
<DataArray Name="forces" NumberOfComponents="3" format="ascii" type="Float32">0.0 0.0 0.0 0.11506186201497183 0.003329956832287176 0.0 0.0 0.0 0.0 0.0 0.0 0.0 0.0 0.0 0.0 0.0 0.0 0.0 0.058640912670753775 -0.0038545204346493063 0.0 0.0063370021473776825 0.0012403253095317746 0.0 5.8172551687620559e-05 -0.0001948329705946356 0.0 0.0 0.0 0.0 -7.3819853661249375e-05 -0.00013546810542903654 0.0 0.0 0.0 0.0 2.314209070457389e-05 4.8464074914592761e-05 0.0 0.00025187985542704625 3.865923934470408e-05 0.0 0.0 0.0 0.0 -5.8441813544400661e-05 2.7441367428497072e-05 0.0 0.00053589819210384893 0.00032983488759397471 0.0 -0.00020687195893173205 -2.1806915277523708e-05 0.0 0.0 0.0 0.0 -0.00041239091214149976 0.00021628369915190041 0.0 -0.0079722532547418096 0.0017419448709629743 0.0 -0.025490307881470445 0.018589024528762779 0.0 0.025903325517887325 -0.017996741041253411 0.0 -0.0060103906301714497 0.0099536305867117605 0.0 0.010677544238064409 -0.0040132016926781033 0.0 0.00015516974994920417 -0.00027833050930925728 0.0 -0.0078927388448919618 0.0047529462951776819 0.0 0.0063901183007339726 -0.0089789194726948365 0.0 0.0013029227971538334 0.002227093002467961 0.0 0.0 0.0 0.0 0.11468485262804544 -0.0095193989374507421 0.0 -0.046670292992490037 0.0 0.0 -0.068391569022481793 -0.003329956832287176 0.0 0.0 0.0 0.0 -0.065784377169897504 -0.01021771637817416 0.0 0.0069336871429276966 0.013972154038009185 0.0 0.0 0.0 0.0 0.002451142764145018 0.00031435314536558997 0.0 -0.00022970447494535841 -7.7283559911872006e-05 0.0 0.0 0.0 0.0 0.0 0.0 0.0 0.00013358550672138461 0.00020201809416850821 0.0 7.3283752804849568e-05 9.8258979615943858e-06 0.0 0.0079722532547418096 -0.0017419448709629743 0.0 0.0 0.0 0.0 0.0 0.0 0.0 0.0 0.0 0.0 -0.00015516974994920417 0.00027833050930925728 0.0 0.010487455005437272 0.0063795307237758071 0.0 0.0014362933609788598 0.0094891960628599708 0.0 -0.11126794634475995 0.010236103167520265 0.0 0.0 4.4408920985006262e-16 0.0 -0.099349092731757863 0.0062202092484105872 0.0 -0.024278952293245452 -0.0067880410217356271 0.0 -0.0025388191896823153 1.3619084042203975e-05 0.0 0.00010332372751092614 2.3288466158781625e-06 0.0 -3.9400850355837664e-06 1.457395542081506e-05 0.0 -2.5299469221128677e-05 2.8907437471826186e-05 0.0 -0.00047745637855944829 -0.00035727625502247179 0.0 0.00031078323436218203 1.8629724482279443e-05 0.0 -0.038387529732126793 -0.0022500745237585425 0.0 -0.13065669447316886 0.0088890080232952185 0.0 </DataArray>
<DataArray Name="radii" format="ascii" type="Float32">1.3900000000000003 1.3900000000000003 1.3900000000000003 1.2400000000000002 1.3900000000000003 1.3900000000000003 1.2400000000000002 1.3900000000000003 1.2400000000000002 1.3900000000000003 1.2400000000000002 1.2400000000000002 1.2400000000000002 1.3900000000000003 1.3900000000000003 1.3900000000000003 1.2400000000000002 1.3900000000000003 1.3900000000000003 1.2400000000000002 1.3900000000000003 1.3900000000000003 1.3900000000000003 1.3900000000000003 1.2400000000000002 1.3900000000000003 1.3900000000000003 1.3900000000000003 1.2400000000000002 1.3900000000000003 1.3900000000000003 1.3900000000000003 1.3900000000000003 1.3900000000000003 1.3900000000000003 1.3900000000000003 1.3900000000000003 1.3900000000000003 1.3900000000000003 1.3900000000000003 1.3900000000000003 1.3900000000000003 1.3900000000000003 1.3900000000000003 1.3900000000000003 1.3900000000000003 1.3900000000000003 1.3900000000000003 1.3900000000000003 1.3900000000000003 1.3900000000000003 1.3900000000000003 1.2400000000000002 1.2400000000000002 1.2400000000000002 1.2400000000000002 1.2400000000000002 1.2400000000000002 1.2400000000000002 1.2400000000000002 1.2400000000000002 1.2400000000000002 </DataArray>
</PointData>
<CellData/>
</Piece>
</UnstructuredGrid>
</VTKFile>
