<?xml version="1.0" ?>
<VTKFile byte_order="LittleEndian" type="UnstructuredGrid" version="0.1">
<UnstructuredGrid>
<Piece NumberOfCells="0" NumberOfPoints="77">
<Points>
<DataArray NumberOfComponents="3" format="ascii" type="Float32">12.941580073592776 1.1 2 21.533161375044958 7.5489547535060835 2 20.895741042767689 1 2 21.810258804518018 2.9792536286614961 2 22.921533283323448 1 2 35.421281300601301 1 2 44.879633418720239 1 2 46.896522334246256 1.1 2 51.261544271876723 1 2 53.24487290086482 1.1 2 57.910430720331213 1.1 2 64.647732844424425 1.1 2 66.600677335605496 1 2 82.19058072641522 1.2000000000000002 2 87.254151591478021 5.3827479296981027 2 87.984071100232356 1 2 89.764156557309477 1 2 93.866291448789354 1.1 2 74.062819891151619 15.2568227227911 2 84.551164819744358 16.933513922188098 2 75.973730170214338 1.2000000000000002 2 88.148523473848371 7.5512065243049653 2 76.218116961789818 15.098589159340088 2 78.063909179355619 5.1973499647243582 2 83.546734295694094 7.2864249230993741 2 80.621503648703282 16.266043279930518 2 73.890394333843602 1 2 89.966536181259258 15.176265976165517 2 82.477786709965528 9.2044953213080358 2 80.23415841628038 5.428880782500026 2 84.125430686539048 1 2 79.488739219992212 18.139562768243803 2 72.657178992766006 3.4505283434541965 2 89.73745633294088 11.174582369307963 2 79.541960079704978 11.895542993977067 2 86.036037974401424 13.319917211677236 2 91.393118995606741 13.250861014909988 2 79.320519905280449 3.2792597129563017 2 86.04821349635985 1.2000000000000002 2 82.353016682878689 17.830275132688328 2 75.788912316201618 5.1410225349585428 2 88.922420587049871 9.4816689929150524 2 75.045178635649663 13.256265523398783 2 82.950085837546141 11.412236467929606 2 86.125549615039233 15.451289394162609 2 81.485794155198661 3.3400128396937969 2 74.866442516065177 7.1144990020096905 2 80.305566667877613 9.6507063531803805 2 87.892241651788055 14.436629416784937 2 87.623939516978282 11.601595099165188 2 76.382737044631824 8.8710034024703539 2 84.622879601544298 9.2283179481525046 2 80.20312212183876 1 2 84.853586199438439 5.2240627344541162 2 82.814083793586761 15.283599576714135 2 78.208592135381338 1.2000000000000002 2 85.937498259990477 7.3372843394944205 2 78.227988950838764 16.35333430076555 2 82.56777653346613 5.3164407660478323 2 79.419476635042116 14.281363108036764 2 87.973918085784788 16.612328506463498 2 79.108461264782406 7.5864366984444915 2 73.625801017450343 5.4070488335576057 2 77.486346141278744 13.119736226195215 2 83.862609854428229 13.362617536218965 2 89.235405880825923 13.030477696903176 2 77.031011865807102 3.2345400039054644 2 86.13815801423344 3.3921448850429514 2 84.065261092363826 19.474677521447976 2 74.795572176049276 3.0826881789408862 2 81.534910213430962 13.265150546680673 2 83.837967065024074 3.1344423437475055 2 78.152986896117085 9.7387067831606 2 86.790113015432439 9.4118781435978836 2 76.98634621156495 6.9841709696477219 2 81.387495425119241 7.4170221960296603 2 85.220236642113264 11.240290148686487 2 </DataArray>
</Points>
<Cells>
<DataArray Name="connectivity" format="ascii" type="Int32">0</DataArray>
<DataArray Name="offsets" format="ascii" type="Int32">0</DataArray>
<DataArray Name="types" format="ascii" type="UInt8">1</DataArray>
</Cells>
<PointData>
<DataArray Name="Points" NumberOfComponents="3" format="ascii" type="Float32">12.941580073592776 1.1 2 21.533161375044958 7.5489547535060835 2 20.895741042767689 1 2 21.810258804518018 2.9792536286614961 2 22.921533283323448 1 2 35.421281300601301 1 2 44.879633418720239 1 2 46.896522334246256 1.1 2 51.261544271876723 1 2 53.24487290086482 1.1 2 57.910430720331213 1.1 2 64.647732844424425 1.1 2 66.600677335605496 1 2 82.19058072641522 1.2000000000000002 2 87.254151591478021 5.3827479296981027 2 87.984071100232356 1 2 89.764156557309477 1 2 93.866291448789354 1.1 2 74.062819891151619 15.2568227227911 2 84.551164819744358 16.933513922188098 2 75.973730170214338 1.2000000000000002 2 88.148523473848371 7.5512065243049653 2 76.218116961789818 15.098589159340088 2 78.063909179355619 5.1973499647243582 2 83.546734295694094 7.2864249230993741 2 80.621503648703282 16.266043279930518 2 73.890394333843602 1 2 89.966536181259258 15.176265976165517 2 82.477786709965528 9.2044953213080358 2 80.23415841628038 5.428880782500026 2 84.125430686539048 1 2 79.488739219992212 18.139562768243803 2 72.657178992766006 3.4505283434541965 2 89.73745633294088 11.174582369307963 2 79.541960079704978 11.895542993977067 2 86.036037974401424 13.319917211677236 2 91.393118995606741 13.250861014909988 2 79.320519905280449 3.2792597129563017 2 86.04821349635985 1.2000000000000002 2 82.353016682878689 17.830275132688328 2 75.788912316201618 5.1410225349585428 2 88.922420587049871 9.4816689929150524 2 75.045178635649663 13.256265523398783 2 82.950085837546141 11.412236467929606 2 86.125549615039233 15.451289394162609 2 81.485794155198661 3.3400128396937969 2 74.866442516065177 7.1144990020096905 2 80.305566667877613 9.6507063531803805 2 87.892241651788055 14.436629416784937 2 87.623939516978282 11.601595099165188 2 76.382737044631824 8.8710034024703539 2 84.622879601544298 9.2283179481525046 2 80.20312212183876 1 2 84.853586199438439 5.2240627344541162 2 82.814083793586761 15.283599576714135 2 78.208592135381338 1.2000000000000002 2 85.937498259990477 7.3372843394944205 2 78.227988950838764 16.35333430076555 2 82.56777653346613 5.3164407660478323 2 79.419476635042116 14.281363108036764 2 87.973918085784788 16.612328506463498 2 79.108461264782406 7.5864366984444915 2 73.625801017450343 5.4070488335576057 2 77.486346141278744 13.119736226195215 2 83.862609854428229 13.362617536218965 2 89.235405880825923 13.030477696903176 2 77.031011865807102 3.2345400039054644 2 86.13815801423344 3.3921448850429514 2 84.065261092363826 19.474677521447976 2 74.795572176049276 3.0826881789408862 2 81.534910213430962 13.265150546680673 2 83.837967065024074 3.1344423437475055 2 78.152986896117085 9.7387067831606 2 86.790113015432439 9.4118781435978836 2 76.98634621156495 6.9841709696477219 2 81.387495425119241 7.4170221960296603 2 85.220236642113264 11.240290148686487 2 </DataArray>
<DataArray Name="forces" NumberOfComponents="3" format="ascii" type="Float32">0.0017296542249004444 -0.022324208704675073 0.0 0.0013632854584462719 0.015141972939058456 0.0 -0.0041522646712228726 -0.018454345863476634 0.0 0.00096402736817580159 -0.0019883208385403882 0.0 0.0 0.0 0.0 -0.00085498858149721246 -0.030722680775159675 0.0 -0.0060706280312428917 -0.049779913926867841 0.0 -0.0052419591015802347 -0.0013494195512706022 0.0 -0.0038454418464586443 -0.01832794261383399 0.0 -0.0027060154776806927 -0.023257107622901584 0.0 -0.0050341557499007233 -0.036473052286608722 0.0 -0.0059573825863069915 -0.004414786489557219 0.0 -0.0048246240027459046 -0.075132986866521007 0.0 -0.0061391327570859688 -0.09704215763321121 0.0 -0.0043583427912834566 0.037842438468916439 0.0 -0.001446592574684491 -0.12441004391578817 0.0 0.0065214737442604587 -0.025912069874133085 0.0 0.0040915596980191458 -0.15286481587237449 0.0 -0.010172671396151418 0.015446238518908887 0.0 -0.00073747257979267121 0.018362994265161553 0.0 -0.030769860429870566 -0.22385530340923954 0.0 -0.12289990617054176 0.10744215138850245 0.0 -0.0034146309717568192 0.019857412460082297 0.0 -0.025863551483699308 0.042562765051951834 0.0 -0.20961862291004757 0.01905035837652079 0.0 0.01466173516877111 0.031349867428935384 0.0 -0.021550681933422203 -0.018934687883559179 0.0 -0.0018989292068479315 0.0025889382227905181 0.0 -0.033572977982253401 -0.10110493451263239 0.0 -0.069285730856072231 -0.066902348344478599 0.0 0.0010926778361843772 -0.11526297848451114 0.0 0.0038841009009818765 0.019111623561420522 0.0 -0.039748013744739963 -0.0040557912111145386 0.0 0.0071191093903765594 0.053546156065486364 0.0 -0.0046534356537902988 0.016781484606651437 0.0 0.0012672668152501308 0.030019472322069002 0.0 0.019619918379996243 0.01985897073017048 0.0 0.092477981306340037 0.031306698777713582 0.0 -0.00055840408198811961 -0.16724997925325014 0.0 0.00047501747628386423 0.032606498036466133 0.0 0.040103812124234223 -0.074683420663848005 0.0 -0.0017181846772053172 0.04683434331736698 0.0 -0.01800779045502339 0.051415219410511949 0.0 0.023501716981710899 0.059740682483888523 0.0 0.015767288504726095 0.030732734676831089 0.0 -0.078334893433898781 -0.012453280125882153 0.0 -0.03394129969672937 0.058578450015232909 0.0 -0.010186973732024901 0.020937335270615209 0.0 -0.016164850367513639 0.031367989920315933 0.0 0.036105919509122696 0.084845611372499685 0.0 -0.08209884911854072 0.097193582993342395 0.0 0.029543772037297009 0.063081479609299079 0.0 -0.01458543833078696 -0.039718375707315928 0.0 -0.024396338710805071 -0.13538603235214772 0.0 -0.0019088959734204648 0.025015958273720822 0.0 -0.0047333574877079579 -0.12258342610990915 0.0 0.23307570903057467 0.13778712598933351 0.0 0.0069111559318189488 0.014836784021025222 0.0 0.060190828368701862 0.044496855321224542 0.0 -0.0095643044561758983 0.0049611392364970787 0.0 0.016014095058708603 0.03382098889091921 0.0 -0.074179451859817169 -0.0091143137324438059 0.0 -0.050230696166364594 0.031936636441060873 0.0 0.038177796654696394 0.073970815657060277 0.0 -0.01916324971664015 0.0019545410321973201 0.0 -0.003590049766325723 0.038170392772350979 0.0 -0.12331437106675305 0.039656643568202254 0.0 -0.095121953729293329 0.041036292549999714 0.0 0.020258324560004905 0.019615203844411015 0.0 0.041815375718243675 0.019775523418157699 0.0 0.025800351858308271 -0.0052054657824414201 0.0 0.084406740278473558 0.049540594987573461 0.0 -0.0054568380219242804 0.021521980591127778 0.0 -0.04651785106368355 -0.097438402027770127 0.0 0.030647086483386293 -0.016121351432623846 0.0 0.15231972288926812 0.074707914601018541 0.0 0.011513193281341347 -0.0057772976544545329 0.0 </DataArray>
<DataArray Name="radii" format="ascii" type="Float32">1.1 1.1 1 1.2000000000000002 1 1 1 1.1 1 1.1 1.1 1.1 1 1.2000000000000002 1.2000000000000002 1 1 1.1 1 1.2000000000000002 1.2000000000000002 1.2000000000000002 1.2000000000000002 1.1 1.2000000000000002 1.2000000000000002 1 1.2000000000000002 1.1 1.2000000000000002 1 1 1.2000000000000002 1 1.2000000000000002 1.2000000000000002 1.2000000000000002 1.2000000000000002 1.2000000000000002 1.2000000000000002 1.2000000000000002 1 1 1.2000000000000002 1 1.2000000000000002 1 1.2000000000000002 1 1.2000000000000002 1 1.1 1 1.2000000000000002 1.2000000000000002 1.2000000000000002 1.2000000000000002 1.2000000000000002 1.2000000000000002 1.2000000000000002 1.2000000000000002 1.2000000000000002 1 1.2000000000000002 1 1 1.2000000000000002 1.2000000000000002 1.2000000000000002 1.2000000000000002 1.2000000000000002 1.2000000000000002 1 1.2000000000000002 1.1 1.1 1.1 </DataArray>
</PointData>
<CellData/>
</Piece>
</UnstructuredGrid>
</VTKFile>
