<?xml version="1.0" ?>
<VTKFile byte_order="LittleEndian" type="UnstructuredGrid" version="0.1">
<UnstructuredGrid>
<Piece NumberOfCells="0" NumberOfPoints="62">
<Points>
<DataArray NumberOfComponents="3" format="ascii" type="Float32">2.2925784267772755 3.485637527756988 2 6.193988227356229 1.2400000000000002 2 5.6654023343445434 3.932935993085759 2 7.777177105859737 2.9469069254852203 2 11.66634153341689 3.3738422242303105 2 15.499190673839069 5.645123375532858 2 15.822268963912309 1.09 2 24.829557449658889 2.9419734826975992 2 28.129865847261353 1.09 2 28.985573971860518 5.6943673720060213 2 30.311795333700307 1.09 2 33.719385903735045 3.3053649255556907 2 38.028143828941715 2.6323907810495411 2 42.25646005364105 1.879272820423127 2 44.173748094955513 3.406445416561076 2 48.292722379898372 3.290146092486431 2 50.88680664512799 2.2706054902334674 2 53.387004625707945 3.081143255243457 2 58.842519718177002 3.4590110491153099 2 62.903393039389577 2.0897152919060149 2 64.628124370720656 3.6032998372140095 2 69.331045542228409 2.4121864717594295 2 71.567127708891903 1.2400000000000002 2 74.044421624758598 4.3918418390207199 2 75.372052851525694 2.6343847949145025 2 77.090029230912393 4.1001578748892085 2 86.780635011110135 3.2229288511584739 2 89.273491078176704 3.0845582319549147 2 92.264847439378869 2.4384084575574789 2 94.88715031429814 3.4020979832867595 2 98.76 1.2400000000000002 2 1.2400000000000002 1.2400000000000002 2 3.7158946204755177 1.2400000000000002 2 6.9751886060174728 6.0429204227056363 2 13.443773941303855 1.2400000000000002 2 14.913607249604375 3.2358785285818574 2 26.140304207271924 5.1372201808280886 2 29.480418174584216 3.2667976459773485 2 39.846394856225189 1.2400000000000002 2 42.020265353741806 4.6496033679300748 2 46.278213115940787 4.7288431082385554 2 55.493247588140008 4.3908077429011749 2 56.724853452696863 2.1710703856971003 2 67.12518484415304 3.3486279928663496 2 69.10066122925906 4.8625124163769309 2 71.635696481583864 3.7108328199577829 2 72.506676666039311 6.3898270555209864 2 75.75667554862882 6.1824322745632561 2 86.666212424801316 5.721055091551257 2 89.141501408571969 5.5631426060487321 2 96.301047096474463 1.3627644370456704 2 98.760000000000005 3.7200738072121329 2 8.9192820979431797 1.09 2 17.913177787750968 1.7068829082069201 2 27.15842510012568 3.0410600953260341 2 32.44365474139731 1.535046547113144 2 35.155861881014403 4.9620233713536139 2 35.846682050085668 2.8997478223696183 2 49.056244734298247 1.09 2 60.979349867175799 1.09 2 73.790772766128683 1.09 2 90.53807808234464 1.09 2 </DataArray>
</Points>
<Cells>
<DataArray Name="connectivity" format="ascii" type="Int32">0</DataArray>
<DataArray Name="offsets" format="ascii" type="Int32">0</DataArray>
<DataArray Name="types" format="ascii" type="UInt8">1</DataArray>
</Cells>
<PointData>
<DataArray Name="Points" NumberOfComponents="3" format="ascii" type="Float32">2.2925784267772755 3.485637527756988 2 6.193988227356229 1.2400000000000002 2 5.6654023343445434 3.932935993085759 2 7.777177105859737 2.9469069254852203 2 11.66634153341689 3.3738422242303105 2 15.499190673839069 5.645123375532858 2 15.822268963912309 1.09 2 24.829557449658889 2.9419734826975992 2 28.129865847261353 1.09 2 28.985573971860518 5.6943673720060213 2 30.311795333700307 1.09 2 33.719385903735045 3.3053649255556907 2 38.028143828941715 2.6323907810495411 2 42.25646005364105 1.879272820423127 2 44.173748094955513 3.406445416561076 2 48.292722379898372 3.290146092486431 2 50.88680664512799 2.2706054902334674 2 53.387004625707945 3.081143255243457 2 58.842519718177002 3.4590110491153099 2 62.903393039389577 2.0897152919060149 2 64.628124370720656 3.6032998372140095 2 69.331045542228409 2.4121864717594295 2 71.567127708891903 1.2400000000000002 2 74.044421624758598 4.3918418390207199 2 75.372052851525694 2.6343847949145025 2 77.090029230912393 4.1001578748892085 2 86.780635011110135 3.2229288511584739 2 89.273491078176704 3.0845582319549147 2 92.264847439378869 2.4384084575574789 2 94.88715031429814 3.4020979832867595 2 98.76 1.2400000000000002 2 1.2400000000000002 1.2400000000000002 2 3.7158946204755177 1.2400000000000002 2 6.9751886060174728 6.0429204227056363 2 13.443773941303855 1.2400000000000002 2 14.913607249604375 3.2358785285818574 2 26.140304207271924 5.1372201808280886 2 29.480418174584216 3.2667976459773485 2 39.846394856225189 1.2400000000000002 2 42.020265353741806 4.6496033679300748 2 46.278213115940787 4.7288431082385554 2 55.493247588140008 4.3908077429011749 2 56.724853452696863 2.1710703856971003 2 67.12518484415304 3.3486279928663496 2 69.10066122925906 4.8625124163769309 2 71.635696481583864 3.7108328199577829 2 72.506676666039311 6.3898270555209864 2 75.75667554862882 6.1824322745632561 2 86.666212424801316 5.721055091551257 2 89.141501408571969 5.5631426060487321 2 96.301047096474463 1.3627644370456704 2 98.760000000000005 3.7200738072121329 2 8.9192820979431797 1.09 2 17.913177787750968 1.7068829082069201 2 27.15842510012568 3.0410600953260341 2 32.44365474139731 1.535046547113144 2 35.155861881014403 4.9620233713536139 2 35.846682050085668 2.8997478223696183 2 49.056244734298247 1.09 2 60.979349867175799 1.09 2 73.790772766128683 1.09 2 90.53807808234464 1.09 2 </DataArray>
<DataArray Name="forces" NumberOfComponents="3" format="ascii" type="Float32">0.0 0.0 0.0 0.0029402599695887346 -0.001184830207128254 0.0 0.0 0.0 0.0 0.0010180080099502051 0.0013191968560933346 0.0 0.0 0.0 0.0 0.00026121334338553094 0.0010736100483098151 0.0 0.0 0.0 0.0 0.00039872588271110088 0.00069373565690308283 0.0 -0.00048274715662326639 -0.0017270875824043159 0.0 0.0 0.0 0.0 0.0033722390850249298 -0.0053314329249603771 0.0 0.001751109067245129 0.0024299951713343476 0.0 0.028281703492625765 -0.0010162885664265144 0.0 0.025459963532571118 0.0064225619872187523 0.0 -0.0074113531194343572 -0.0045006566836667868 0.0 -7.383203391499735e-06 0.0022569846640950039 0.0 -0.0029073427267745353 0.0025965022601276209 0.0 0.0 0.0 0.0 0.0 0.0 0.0 0.0082376045101353306 0.0036011204316075658 0.0 -0.043143246098395115 0.0076880743473025891 0.0 -0.077428520401653031 0.041817613969925019 0.0 0.077380770769420265 -0.042609213447489226 0.0 0.044016932439578334 -0.040698480189998637 0.0 0.021260860159329549 0.11779869671816734 0.0 -0.036579541755659549 0.001443967112176061 0.0 0.0 0.0 0.0 0.00015974426260490212 -0.0029997774396234482 0.0 0.019383877335033994 0.021590539101507156 0.0 -0.0019698352154843132 0.0028476185384286889 0.0 0.014635663778610615 -0.00073085522514025939 0.0 -0.0044667088496916918 0.0 0.0 0.00042564123595667525 0.0 0.0 0.0 0.0 0.0 0.00033872070540308928 -0.0013381666661345525 0.0 0.00078532383348790466 0.00034763347286705494 0.0 0.0 0.0 0.0 -0.00202920524230532 0.0053314329249603771 0.0 -0.02268387298615741 -0.010000380724267366 0.0 0.0 0.0 0.0 0.0073249530772718204 0.0059772848085334167 0.0 0.0 0.0 0.0 0.009499946579513795 0.0048927380854886455 0.0 0.04663802387632339 -0.0047036424230931803 0.0 0.0 0.0 0.0 -0.017690747449086313 -0.0045659319738158531 0.0 -0.035860687866209717 0.046928262598462687 0.0 0.0052266751721475099 0.0052458570650379954 0.0 0.0 0.0 0.0 -0.00015974426260490212 0.0029997774396234482 0.0 0.0039168784334001113 -0.0002277545967416725 0.0 0.0 0.0 0.0 -0.00071494341126191786 -0.00013801067668672986 0.0 0.0 0.0 0.0 -0.0008602866860963434 0.0017270875824043159 0.0 -0.001751109067245129 -0.0024299951713343476 0.0 0.0 0.0 0.0 -0.030122713613313996 0.0083018465553572843 0.0 0.00077461055020059072 -0.0031572017362722291 0.0 0.0074042071156990037 -0.0064263545522303452 0.0 -0.067285863967073256 -0.064528177418640545 0.0 -0.023497707707401613 -0.018471213575973849 0.0 </DataArray>
<DataArray Name="radii" format="ascii" type="Float32">1.2400000000000002 1.2400000000000002 1.2400000000000002 1.09 1.2400000000000002 1.2400000000000002 1.09 1.2400000000000002 1.09 1.2400000000000002 1.09 1.09 1.09 1.2400000000000002 1.2400000000000002 1.2400000000000002 1.09 1.2400000000000002 1.2400000000000002 1.09 1.2400000000000002 1.2400000000000002 1.2400000000000002 1.2400000000000002 1.09 1.2400000000000002 1.2400000000000002 1.2400000000000002 1.09 1.2400000000000002 1.2400000000000002 1.2400000000000002 1.2400000000000002 1.2400000000000002 1.2400000000000002 1.2400000000000002 1.2400000000000002 1.2400000000000002 1.2400000000000002 1.2400000000000002 1.2400000000000002 1.2400000000000002 1.2400000000000002 1.2400000000000002 1.2400000000000002 1.2400000000000002 1.2400000000000002 1.2400000000000002 1.2400000000000002 1.2400000000000002 1.2400000000000002 1.2400000000000002 1.09 1.09 1.09 1.09 1.09 1.09 1.09 1.09 1.09 1.09 </DataArray>
</PointData>
<CellData/>
</Piece>
</UnstructuredGrid>
</VTKFile>
