<?xml version="1.0" ?>
<VTKFile byte_order="LittleEndian" type="UnstructuredGrid" version="0.1">
<UnstructuredGrid>
<Piece NumberOfCells="0" NumberOfPoints="37">
<Points>
<DataArray NumberOfComponents="3" format="ascii" type="Float32">12.332710749391493 1.1 2 20.621980917694234 4.8244706859169018 2 20.959680462649082 1 2 22.058254193192916 2.9060547558143859 2 23.22736484477737 1 2 35.190336136491865 1 2 44.551650954794709 1 2 46.652372736978187 1.1168360358169427 2 51.856809858778647 1 2 53.995313490966772 1.1016033812645321 2 58.209334426855364 1.1 2 65.476117894779804 1.1015281045960732 2 67.612500044628391 1 2 80.612726672156626 1.1019440788582942 2 84.756657760785231 1.3241450951717175 2 86.951717325180638 1 2 88.833112610178802 1 2 93.525381846314573 1.1 2 77.783910413832757 8.2431958498463658 2 82.451356422708358 9.5238718779948819 2 78.407228823128364 1.1 2 84.695952245555716 5.269198256696213 2 78.915575315533786 6.5104865870456399 2 79.644953727034519 2.9427620766240747 2 84.022446949803353 3.2603422910403288 2 81.171751145679195 7.0467829387694731 2 75.950994682705044 1 2 84.649128493706414 9.4248669459452685 2 82.609790945659839 4.9418833054494931 2 81.946576664775094 2.9563055212628395 2 82.764652579417486 1 2 80.503452305716195 10.30856620228964 2 77.443053395804284 3.0286326400253269 2 86.808618212233469 5.6674850827049532 2 80.512472681662913 4.8626202344139555 2 83.2703216045266 7.2686409091984947 2 85.57537818428294 7.3243990539531474 2 </DataArray>
</Points>
<Cells>
<DataArray Name="connectivity" format="ascii" type="Int32">0</DataArray>
<DataArray Name="offsets" format="ascii" type="Int32">0</DataArray>
<DataArray Name="types" format="ascii" type="UInt8">1</DataArray>
</Cells>
<PointData>
<DataArray Name="Points" NumberOfComponents="3" format="ascii" type="Float32">12.332710749391493 1.1 2 20.621980917694234 4.8244706859169018 2 20.959680462649082 1 2 22.058254193192916 2.9060547558143859 2 23.22736484477737 1 2 35.190336136491865 1 2 44.551650954794709 1 2 46.652372736978187 1.1168360358169427 2 51.856809858778647 1 2 53.995313490966772 1.1016033812645321 2 58.209334426855364 1.1 2 65.476117894779804 1.1015281045960732 2 67.612500044628391 1 2 80.612726672156626 1.1019440788582942 2 84.756657760785231 1.3241450951717175 2 86.951717325180638 1 2 88.833112610178802 1 2 93.525381846314573 1.1 2 77.783910413832757 8.2431958498463658 2 82.451356422708358 9.5238718779948819 2 78.407228823128364 1.1 2 84.695952245555716 5.269198256696213 2 78.915575315533786 6.5104865870456399 2 79.644953727034519 2.9427620766240747 2 84.022446949803353 3.2603422910403288 2 81.171751145679195 7.0467829387694731 2 75.950994682705044 1 2 84.649128493706414 9.4248669459452685 2 82.609790945659839 4.9418833054494931 2 81.946576664775094 2.9563055212628395 2 82.764652579417486 1 2 80.503452305716195 10.30856620228964 2 77.443053395804284 3.0286326400253269 2 86.808618212233469 5.6674850827049532 2 80.512472681662913 4.8626202344139555 2 83.2703216045266 7.2686409091984947 2 85.57537818428294 7.3243990539531474 2 </DataArray>
<DataArray Name="forces" NumberOfComponents="3" format="ascii" type="Float32">0.0 0.0 0.0 1.955108428472757e-05 3.4801372881864824e-05 0.0 4.4602503847330283e-05 -9.0610794212715845e-05 0.0 1.373659879846278e-05 2.3832105109994549e-05 0.0 0.0 0.0 0.0 0.00010154096974567884 -1.3389608445669419e-05 0.0 0.0010573372725133368 0.0 0.0 0.0 0.0 0.0 -0.025500999267093403 -0.0012307089574216876 0.0 0.025500999267093403 0.0012307089574216876 0.0 0.054225352937410411 -0.005206806567861804 0.0 -0.02431767273882731 0.001172928769885292 0.0 0.024145510563134995 -0.0024001558134618042 0.0 -0.030839774049300904 0.0014922185494883498 0.0 -0.074541330121117036 0.01151707582748031 0.0 0.074541330121117036 -0.01151707582748031 0.0 -0.076757099801900083 -0.011194546128126632 0.0 -0.06817218634831454 -0.041313327608530848 0.0 0.010864977147677998 -0.0074952889868112743 0.0 0.0 0.0 0.0 0.0 0.0 0.0 0.003899691892981838 0.011600404383252133 0.0 -0.07212930619311074 -0.01714524340119505 0.0 -0.0017340849190959275 -0.0038376073058285793 0.0 -0.0024323690139580311 -0.011366117138859459 0.0 0.07212930619311074 0.01714524340119505 0.0 0.0 0.0 0.0 0.0 0.0 0.0 0.0 0.0 0.0 -0.0051999109530816512 0.0092366036940166544 0.0 0.034572362123358749 -0.010963109487897679 0.0 0.0 0.0 0.0 0.0035164878324331992 -0.039884145843771389 0.0 -0.0090605602998035245 0.013651286637489815 0.0 0.0017340849190959275 0.0038376073058285793 0.0 -0.065831143109334092 -0.0015924218256032976 0.0 0.065831143109334092 0.0015924218256032976 0.0 </DataArray>
<DataArray Name="radii" format="ascii" type="Float32">1.1 1.1 1 1.2000000000000002 1 1 1 1.1 1 1.1 1.1 1.1 1 1.1 1.1 1 1 1.1 1 1.1 1.1 1.1 1.1 1 1 1.1 1 1.1 1 1.1 1 1 1.1 1 1.1 1.1 1.1 </DataArray>
</PointData>
<CellData/>
</Piece>
</UnstructuredGrid>
</VTKFile>
