<?xml version="1.0" ?>
<VTKFile byte_order="LittleEndian" type="UnstructuredGrid" version="0.1">
<UnstructuredGrid>
<Piece NumberOfCells="0" NumberOfPoints="31">
<Points>
<DataArray NumberOfComponents="3" format="ascii" type="Float32">1.26 1.26 2 3.7762818394410687 1.26 2 5.866677119761464 2.6366762713875387 2 7.642335640309577 1.09 2 12.175511518138855 1.2633642787665782 2 14.422990582485328 2.3976498648693179 2 16.386680141105291 1.09 2 25.931497625945386 2.3490303778323089 2 27.919767305303974 1.09 2 29.731185037178914 2.5824940772497009 2 31.547066134103371 1.09 2 33.720089168929725 1.3415227545918889 2 37.858069783025428 1.0906408199981297 2 40.164863287579777 1.2624299997693884 2 42.417350279173036 2.4520205762962943 2 48.149157123562766 2.4887768412053708 2 50.037311262661049 1.0905974740925106 2 53.860419198131552 2.4475246764657461 2 57.854851046658041 2.2601260197882027 2 62.09809728445466 1.09 2 66.141441294317829 2.564069895496996 2 69.617076183575463 2.3074333166691852 2 71.903395962540998 1.26 2 74.201428589463731 2.3020174729549661 2 76.213332347120684 1.09 2 77.755538177741172 2.8608712943240904 2 86.253988436733792 2.4823993728109768 2 89.811183164167858 2.2902222471887885 2 91.861545922762986 1.09 2 96.279857257951576 1.4881054400870772 2 98.74 1.26 2 </DataArray>
</Points>
<Cells>
<DataArray Name="connectivity" format="ascii" type="Int32">0</DataArray>
<DataArray Name="offsets" format="ascii" type="Int32">0</DataArray>
<DataArray Name="types" format="ascii" type="UInt8">1</DataArray>
</Cells>
<PointData>
<DataArray Name="Points" NumberOfComponents="3" format="ascii" type="Float32">1.26 1.26 2 3.7762818394410687 1.26 2 5.866677119761464 2.6366762713875387 2 7.642335640309577 1.09 2 12.175511518138855 1.2633642787665782 2 14.422990582485328 2.3976498648693179 2 16.386680141105291 1.09 2 25.931497625945386 2.3490303778323089 2 27.919767305303974 1.09 2 29.731185037178914 2.5824940772497009 2 31.547066134103371 1.09 2 33.720089168929725 1.3415227545918889 2 37.858069783025428 1.0906408199981297 2 40.164863287579777 1.2624299997693884 2 42.417350279173036 2.4520205762962943 2 48.149157123562766 2.4887768412053708 2 50.037311262661049 1.0905974740925106 2 53.860419198131552 2.4475246764657461 2 57.854851046658041 2.2601260197882027 2 62.09809728445466 1.09 2 66.141441294317829 2.564069895496996 2 69.617076183575463 2.3074333166691852 2 71.903395962540998 1.26 2 74.201428589463731 2.3020174729549661 2 76.213332347120684 1.09 2 77.755538177741172 2.8608712943240904 2 86.253988436733792 2.4823993728109768 2 89.811183164167858 2.2902222471887885 2 91.861545922762986 1.09 2 96.279857257951576 1.4881054400870772 2 98.74 1.26 2 </DataArray>
<DataArray Name="forces" NumberOfComponents="3" format="ascii" type="Float32">-0.023750487142099264 0.0 0.0 0.014056661376462548 -0.0062276296792459721 0.0 -4.046390803289987e-05 0.014617603943605116 0.0 0.0036994233148894239 -0.0084176071679440967 0.0 0.00039048645572539449 2.7093387620130186e-05 0.0 -0.0062258158362511742 0.0041612975741824989 0.0 0.0051109164373484995 -0.0047354212523206827 0.0 -0.0017414790542700223 0.0016210431756830536 0.0 0.0021173703282673308 -0.001342032391643378 0.0 -0.0085293106203503648 0.0069896065806016889 0.0 -0.0037798620518965185 -0.0084128666722849479 0.0 0.01008592261256647 0.001789088061820699 0.0 0.010555235554020461 0.00044966268294269478 0.0 -0.014575792909834654 -0.0077368180640399421 0.0 0.010165575073071871 0.01157789292747494 0.0 0.0032177295112494324 0.0023393863766439948 0.0 -7.7203208860443086e-05 3.3497063108517934e-06 0.0 -0.0013222836677857452 0.0042012934600182336 0.0 0.0019020209574519857 0.0014943122564113655 0.0 9.5226324194470558e-05 -4.3992213578148933e-07 0.0 0.001840722388941989 0.0048389443663082558 0.0 0.0017232187886463475 0.0029326873679287446 0.0 -0.0023546558580398161 -0.0024046178931862662 0.0 0.0021348284622390561 0.0027499856306602696 0.0 0.0010949995541954696 -0.0016925534689765567 0.0 -0.0084822337384557953 0.0076337260065193575 0.0 -0.0093924788793218073 0.0081286099818050021 0.0 -0.011406803256732774 0.015252987959379162 0.0 0.017774429285184266 -0.010653379920199197 0.0 -0.013539366299494184 0.015061322173529935 0.0 0.070169889244284731 -0.0059405598019473711 0.0 </DataArray>
<DataArray Name="radii" format="ascii" type="Float32">1.26 1.26 1.26 1.09 1.26 1.26 1.09 1.26 1.09 1.26 1.09 1.09 1.09 1.26 1.26 1.26 1.09 1.26 1.26 1.09 1.26 1.26 1.26 1.26 1.09 1.26 1.26 1.26 1.09 1.26 1.26 </DataArray>
</PointData>
<CellData/>
</Piece>
</UnstructuredGrid>
</VTKFile>
