<?xml version="1.0" ?>
<VTKFile byte_order="LittleEndian" type="UnstructuredGrid" version="0.1">
<UnstructuredGrid>
<Piece NumberOfCells="0" NumberOfPoints="104">
<Points>
<DataArray NumberOfComponents="3" format="ascii" type="Float32">1.7268918302458349 4.785707869287342 2 7.4122623099425304 1 2 5.4502339773637702 4.9742300662532237 2 9.0198692654618853 4.4114840263805242 2 11.681594217986692 4.941500468074981 2 15.302011313502826 7.0983436728726899 2 17.276563840451011 1.3000000000000003 2 24.515029414397532 3.8342597315070108 2 27.674526908771931 1.3000000000000003 2 28.335551997997342 6.3108622796900571 2 30.274990248233987 1.3000000000000003 2 33.308835086427294 3.8984809367201034 2 38.330051684535022 3.8821434529928669 2 41.252908120204843 2.5234704860142059 2 45.295403364509824 2.8585105732089562 2 48.685408722488894 3.5729993037228307 2 50.937393640909193 3.094319924006157 2 53.062999058329083 3.9693796856969756 2 58.72945090388783 3.8038839682419998 2 63.192210137244928 1.6443925899355014 2 62.969352347249405 5.923268709629455 2 67.853420796570333 2.9577044048921062 2 71.385296955441575 1 2 73.674753483544066 6.2140137652928447 2 75.072402045987658 3.486049305273796 2 77.403126214755787 5.1561219914144445 2 87.929158672137902 3.979198872922546 2 90.150816790852204 3.4056211437324104 2 92.87986345682468 3.3021295969524807 2 94.987002787153727 4.2146098285930016 2 96.994839642415982 1 2 1 2.9206772515420858 2 3.4845925220346885 1.5375596370799962 2 7.2401983986297278 5.8686119605268381 2 14.430334942209237 1 2 15.141404354871614 5.0246880700364773 2 25.391836144860061 5.6318384997603399 2 29.421719664552992 4.6292183607922892 2 39.597023751234964 1.392474218500068 2 41.19144547648758 5.7829731027013844 2 46.377051623047699 6.0581645343764388 2 55.788431803683437 4.8834789365064681 2 56.835609454620382 3.1566558469420372 2 65.208160463963438 3.8752796523990773 2 68.673183908704857 5.8672601203879422 2 71.252090100236558 3.0220230489638524 2 72.744611295429152 7.9773618699439908 2 74.732990655194499 7.9518387745825843 2 88.996331746812686 8.1620596754964385 2 90.776780899041242 7.0699867068108802 2 95.430792835433891 2.2008830644182367 2 98.39474469108346 4.9060705242337477 2 9.6909756176858579 1.3148634117542148 2 19.44672878429262 2.7323205306894338 2 27.241732936314751 3.8636089195537009 2 32.909912409024791 1.3006885750999848 2 35.11956371192079 5.7644760763842147 2 35.816610505575497 3.2126448038127862 2 49.046034823009045 1.3000000000000003 2 60.527395838570911 1.3000000000000003 2 73.665897498006402 1.3000000000000003 2 91.232277969269646 1.3353189833248009 2 3.2835353248979384 3.5289954831581016 2 7.2108744502181752 2.9898388675997705 2 5.2089128690122335 2.9907479689825909 2 11.369367956008229 2.9660106676846398 2 17.065726371486246 6.1552594870200439 2 25.014620657730994 1.897597018200758 2 30.128766203311041 7.1972028578885556 2 42.549953270641865 1 2 44.335017126043333 4.6136058893185634 2 48.307955790026142 5.5363575186577121 2 54.83824870467739 3.0431899724625247 2 60.719824773981301 3.6029211863642319 2 63.209642698076159 3.9272678946660364 2 69.541412366035104 4.0668826050290283 2 69.587656312639311 1.9083801338791888 2 72.426841515305284 4.6360157680710952 2 75.641445929521822 6.2073640084513482 2 86.220346595641331 2.9344352952046067 2 89.457577151649389 5.2819990262053143 2 95.598482640379657 6.1196556024762341 2 99.0 1 2 1.5576732103200077 1 2 5.4127071004539582 1 2 7.1065530580461829 7.8639347575632002 2 14.048524197817919 2.9755466832097497 2 16.032151907310606 3.2335019728170313 2 26.569209681926015 7.2486665759413853 2 31.04699995606509 3.4651887902715206 2 37.634530210542906 1 2 42.382467203611036 4.1743054696904061 2 44.454051964897872 6.6098818037785376 2 55.232126665094391 6.8048473867903851 2 56.031415946144413 1.3011112226740895 2 66.991984198916029 4.7861132635356185 2 68.738928731568961 7.8662579981531211 2 70.721199114990043 5.6809735042489677 2 70.733186449503975 7.9811532011064621 2 76.125285309714783 9.3961135449985456 2 87.120505242406452 8.6800963416202634 2 91.578852678185513 5.3590051397270448 2 97.00867715014995 3.284274155995706 2 99.0 2.9930484807083459 2 </DataArray>
</Points>
<Cells>
<DataArray Name="connectivity" format="ascii" type="Int32">0</DataArray>
<DataArray Name="offsets" format="ascii" type="Int32">0</DataArray>
<DataArray Name="types" format="ascii" type="UInt8">1</DataArray>
</Cells>
<PointData>
<DataArray Name="Points" NumberOfComponents="3" format="ascii" type="Float32">1.7268918302458349 4.785707869287342 2 7.4122623099425304 1 2 5.4502339773637702 4.9742300662532237 2 9.0198692654618853 4.4114840263805242 2 11.681594217986692 4.941500468074981 2 15.302011313502826 7.0983436728726899 2 17.276563840451011 1.3000000000000003 2 24.515029414397532 3.8342597315070108 2 27.674526908771931 1.3000000000000003 2 28.335551997997342 6.3108622796900571 2 30.274990248233987 1.3000000000000003 2 33.308835086427294 3.8984809367201034 2 38.330051684535022 3.8821434529928669 2 41.252908120204843 2.5234704860142059 2 45.295403364509824 2.8585105732089562 2 48.685408722488894 3.5729993037228307 2 50.937393640909193 3.094319924006157 2 53.062999058329083 3.9693796856969756 2 58.72945090388783 3.8038839682419998 2 63.192210137244928 1.6443925899355014 2 62.969352347249405 5.923268709629455 2 67.853420796570333 2.9577044048921062 2 71.385296955441575 1 2 73.674753483544066 6.2140137652928447 2 75.072402045987658 3.486049305273796 2 77.403126214755787 5.1561219914144445 2 87.929158672137902 3.979198872922546 2 90.150816790852204 3.4056211437324104 2 92.87986345682468 3.3021295969524807 2 94.987002787153727 4.2146098285930016 2 96.994839642415982 1 2 1 2.9206772515420858 2 3.4845925220346885 1.5375596370799962 2 7.2401983986297278 5.8686119605268381 2 14.430334942209237 1 2 15.141404354871614 5.0246880700364773 2 25.391836144860061 5.6318384997603399 2 29.421719664552992 4.6292183607922892 2 39.597023751234964 1.392474218500068 2 41.19144547648758 5.7829731027013844 2 46.377051623047699 6.0581645343764388 2 55.788431803683437 4.8834789365064681 2 56.835609454620382 3.1566558469420372 2 65.208160463963438 3.8752796523990773 2 68.673183908704857 5.8672601203879422 2 71.252090100236558 3.0220230489638524 2 72.744611295429152 7.9773618699439908 2 74.732990655194499 7.9518387745825843 2 88.996331746812686 8.1620596754964385 2 90.776780899041242 7.0699867068108802 2 95.430792835433891 2.2008830644182367 2 98.39474469108346 4.9060705242337477 2 9.6909756176858579 1.3148634117542148 2 19.44672878429262 2.7323205306894338 2 27.241732936314751 3.8636089195537009 2 32.909912409024791 1.3006885750999848 2 35.11956371192079 5.7644760763842147 2 35.816610505575497 3.2126448038127862 2 49.046034823009045 1.3000000000000003 2 60.527395838570911 1.3000000000000003 2 73.665897498006402 1.3000000000000003 2 91.232277969269646 1.3353189833248009 2 3.2835353248979384 3.5289954831581016 2 7.2108744502181752 2.9898388675997705 2 5.2089128690122335 2.9907479689825909 2 11.369367956008229 2.9660106676846398 2 17.065726371486246 6.1552594870200439 2 25.014620657730994 1.897597018200758 2 30.128766203311041 7.1972028578885556 2 42.549953270641865 1 2 44.335017126043333 4.6136058893185634 2 48.307955790026142 5.5363575186577121 2 54.83824870467739 3.0431899724625247 2 60.719824773981301 3.6029211863642319 2 63.209642698076159 3.9272678946660364 2 69.541412366035104 4.0668826050290283 2 69.587656312639311 1.9083801338791888 2 72.426841515305284 4.6360157680710952 2 75.641445929521822 6.2073640084513482 2 86.220346595641331 2.9344352952046067 2 89.457577151649389 5.2819990262053143 2 95.598482640379657 6.1196556024762341 2 99.0 1 2 1.5576732103200077 1 2 5.4127071004539582 1 2 7.1065530580461829 7.8639347575632002 2 14.048524197817919 2.9755466832097497 2 16.032151907310606 3.2335019728170313 2 26.569209681926015 7.2486665759413853 2 31.04699995606509 3.4651887902715206 2 37.634530210542906 1 2 42.382467203611036 4.1743054696904061 2 44.454051964897872 6.6098818037785376 2 55.232126665094391 6.8048473867903851 2 56.031415946144413 1.3011112226740895 2 66.991984198916029 4.7861132635356185 2 68.738928731568961 7.8662579981531211 2 70.721199114990043 5.6809735042489677 2 70.733186449503975 7.9811532011064621 2 76.125285309714783 9.3961135449985456 2 87.120505242406452 8.6800963416202634 2 91.578852678185513 5.3590051397270448 2 97.00867715014995 3.284274155995706 2 99.0 2.9930484807083459 2 </DataArray>
<DataArray Name="forces" NumberOfComponents="3" format="ascii" type="Float32">0.0 0.0 0.0 0.0 0.0 0.0 -0.00056098000323857736 -0.00028033049740573901 0.0 0.0 0.0 0.0 0.0 0.0 0.0 0.0 0.0 0.0 -0.00017078682515862787 -0.00033694707686374279 0.0 -9.8737389739103197e-06 3.8275494950834253e-05 0.0 -0.00053691575725997446 -4.5604473985269144e-06 0.0 -0.00064903048718751449 0.0010048523865741651 0.0 0.00023144305122785162 -0.00085562923667464104 0.0 0.0021805891241094932 0.00041872894235242878 0.0 0.00064972278670065106 0.00017306493252317704 0.0 -0.00010197391253023827 -0.0001490334633223585 0.0 0.00031321413813646269 -0.0005725541433125262 0.0 -0.0013991429550107074 0.0002974002518228606 0.0 0.0013991429550107074 -0.0002974002518228606 0.0 0.0 0.0 0.0 0.0 0.0 0.0 0.053953551393428723 0.0070334751097327454 0.0 -0.00077511433236717678 0.0064385807993188778 0.0 -0.0040683904065834629 -0.016636439081388066 0.0 0.0 0.0 0.0 0.0055945016045329003 0.0047995861515902818 0.0 -0.0018179965448496718 0.00031153603534414721 0.0 0.040686321043171374 0.013073344326912695 0.0 0.0090605602998035245 -0.013651286637489815 0.0 0.0 0.0 0.0 0.032718594418826456 -0.077308459039764507 0.0 0.011180080942373287 -0.0023222535360558809 0.0 -0.01704150853440467 0.0 0.0 -1.1834924705609198e-07 4.0760556962622094e-07 0.0 0.0 0.0 0.0 0.00056550063362407186 0.00021245401602997232 0.0 0.0 0.0 0.0 -0.00017056226627391603 0.00034305824340272179 0.0 -3.1297554111749251e-05 -4.2979362632674028e-05 0.0 0.00064903048718751449 -0.0010048523865741651 0.0 0.0 0.0 0.0 0.0 0.0 0.0 0.0 0.0 0.0 0.0 0.0 0.0 0.00038826914445501458 0.00091324809982746896 0.0 0.0 0.0 0.0 0.0 0.0 0.0 0.0 0.0 0.0 0.0069839201730508482 0.0013504942273792483 0.0 -0.0039066402191957998 -0.0039845818216909358 0.0 -0.039995873992676699 0.03185506855100384 0.0 0.063746052016173657 -0.038748004391023418 0.0 0.06817218634831454 0.041313327608530848 0.0 0.0 0.0 0.0 0.0 0.0 0.0 0.00019420508492903245 0.00021156645058059204 0.0 -7.7114889199399001e-07 4.5604473985269144e-06 0.0 -0.00010154096974567884 1.3389608445669419e-05 0.0 0.0 0.0 0.0 -0.00064972278670065106 -0.00017306493252317704 0.0 0.0 0.0 0.0 -0.053953584835501188 -0.0070341039761975133 0.0 0.0 0.0 0.0 0.076757099801900083 0.011194546128126632 0.0 0.0 0.0 0.0 0.0 0.0 0.0 -0.00037008667668284967 0.0036237360105815216 0.0 0.0 0.0 0.0 0.0 0.0 0.0 9.8737389739103197e-06 -3.8275494950834253e-05 0.0 0.0 0.0 0.0 -0.0010573372725133368 0.0 0.0 -0.00033323322410535759 0.00023554295594127258 0.0 0.0 0.0 0.0 -2.921725135741709e-05 -1.6427826453838499e-06 0.0 3.3442072467962455e-08 6.28866464767803e-07 0.0 0.00077511433236717678 -0.0064385807993188778 0.0 0.0097784796407865329 0.0063197193750607903 0.0 0.0 0.0 0.0 -0.0048712989387129967 -0.0061714457629091311 0.0 -0.042384812330754904 0.026499265481514548 0.0 0.0 0.0 0.0 0.0 0.0 0.0 0.0024801109808315382 0.0075349512567542539 0.0 0.01704150853440467 -0.00024816204219835214 0.0 1.1834924705609198e-07 -4.0760556962622094e-07 0.0 0.00037008667668284967 -0.0036237360105815216 0.0 -4.5206303854945173e-06 6.7876481375766693e-05 0.0 -0.00016778453842520113 -2.1840525853244108e-05 0.0 0.00023703835799819195 -0.00016385977504547046 0.0 3.1297554111749251e-05 4.2979362632674028e-05 0.0 -0.0018743452691853764 0.00043690029432221227 0.0 0.0 0.0 0.0 0.00010197391253023827 0.0001490334633223585 0.0 2.0019085968894912e-05 0.00033701118737125362 0.0 0.0 0.0 0.0 -0.054584404830508006 0.0042952012506797185 0.0 -0.005537927058510755 0.011543946749903789 0.0 0.0 0.0 0.0 0.0 0.0 0.0 -0.0077071228388707518 2.1365383939600462e-05 0.0 -0.0069583369284821981 0.011479870808502209 0.0 -0.023750178023496958 0.0068929358400195767 0.0 -0.046378786342031283 0.072095761319066129 0.0 -0.037747933040531256 0.0053934646562411081 0.0 0.037747933040531256 -0.0051453026140427559 0.0 </DataArray>
<DataArray Name="radii" format="ascii" type="Float32">1 1 1 1.3000000000000003 1 1 1.3000000000000003 1 1.3000000000000003 1 1.3000000000000003 1.3000000000000003 1.3000000000000003 1 1 1 1.3000000000000003 1 1 1.3000000000000003 1 1 1 1 1.3000000000000003 1 1 1 1.3000000000000003 1 1 1 1 1 1 1 1 1 1 1 1 1 1 1 1 1 1 1 1 1 1 1 1.3000000000000003 1.3000000000000003 1.3000000000000003 1.3000000000000003 1.3000000000000003 1.3000000000000003 1.3000000000000003 1.3000000000000003 1.3000000000000003 1.3000000000000003 1 1 1 1 1 1 1 1 1 1 1 1 1 1 1 1 1 1 1 1 1 1 1 1 1 1 1 1 1 1 1 1 1 1 1 1 1 1 1 1 1 1 </DataArray>
</PointData>
<CellData/>
</Piece>
</UnstructuredGrid>
</VTKFile>
