<?xml version="1.0" ?>
<VTKFile byte_order="LittleEndian" type="UnstructuredGrid" version="0.1">
<UnstructuredGrid>
<Piece NumberOfCells="0" NumberOfPoints="62">
<Points>
<DataArray NumberOfComponents="3" format="ascii" type="Float32">2.3345332072972655 3.5761589240718834 2 6.3408226766603386 1.2700000000000002 2 5.5941893318128315 3.9342623286265059 2 7.8461622835811884 3.123736614786055 2 11.672798136077088 3.4000767818612148 2 15.537968803766978 5.8004592399251829 2 15.822882961562994 1.12 2 24.750524652112855 3.007149579801311 2 28.103519297447551 1.12 2 28.954461749920934 5.8373465239875282 2 30.34525897516987 1.12 2 33.6029034844981 3.4289020982777569 2 38.030916026343128 2.8621759738815928 2 42.27046213760115 1.8643989650653401 2 44.248538890956056 3.447538284558862 2 48.348813922377417 3.4057567726289184 2 50.895471538565644 2.3786424888712552 2 53.353251632701856 3.1168044815356652 2 58.886158211357461 3.489895202499282 2 62.951620143056324 2.0821477127725077 2 64.487547509398212 3.8769010777555573 2 69.287639986079327 2.4567602519160232 2 71.567261628086271 1.2700000000000002 2 73.932789593135965 4.5990660659241973 2 75.408940657034066 2.7954390755472183 2 77.183179022225218 4.3063516062347365 2 86.758120817831724 3.2649542997944057 2 89.312662446100276 3.1486816867771834 2 92.305671808910674 2.691903498468962 2 94.839699080934167 3.4728408918776106 2 98.73 1.2700000000000002 2 1.2700000000000002 1.2700000000000002 2 3.8048842882026648 1.2700000000000002 2 6.9896352778389144 6.0661446648945354 2 13.436790713890387 1.2703170584070507 2 14.91425458032443 3.3381882895075083 2 26.072620776264237 5.2755721657115471 2 29.516121332527934 3.3615564011200503 2 39.790633794771921 1.2700000000000002 2 41.992871368853379 4.665410944569758 2 46.318055957962102 4.928026216278182 2 55.488599850558089 4.5027016069540657 2 56.644228352146669 2.2587092531762663 2 67.01826858053397 3.4732060456359992 2 69.117584786985532 4.9867330929904359 2 71.506472763734436 3.8091136461596178 2 72.339386531770558 6.6044721391155177 2 75.715271815450322 6.407965013096752 2 86.685332681764521 5.8023416402045926 2 89.222704694360104 5.6910249899995096 2 96.195778428771078 1.3289581778129556 2 98.730000000000004 3.8099999884972386 2 8.8519624515814535 1.1200472159373862 2 17.988742127174479 1.6917979625141317 2 27.136440417418648 3.1378389420769475 2 32.559757912797515 1.4449899829613027 2 35.160050540170126 5.0832821152192942 2 35.784326717428023 2.9365238197046186 2 49.044106915865093 1.12 2 60.909992517442973 1.12 2 73.890429172136066 1.12 2 90.703870212751795 1.12 2 </DataArray>
</Points>
<Cells>
<DataArray Name="connectivity" format="ascii" type="Int32">0</DataArray>
<DataArray Name="offsets" format="ascii" type="Int32">0</DataArray>
<DataArray Name="types" format="ascii" type="UInt8">1</DataArray>
</Cells>
<PointData>
<DataArray Name="Points" NumberOfComponents="3" format="ascii" type="Float32">2.3345332072972655 3.5761589240718834 2 6.3408226766603386 1.2700000000000002 2 5.5941893318128315 3.9342623286265059 2 7.8461622835811884 3.123736614786055 2 11.672798136077088 3.4000767818612148 2 15.537968803766978 5.8004592399251829 2 15.822882961562994 1.12 2 24.750524652112855 3.007149579801311 2 28.103519297447551 1.12 2 28.954461749920934 5.8373465239875282 2 30.34525897516987 1.12 2 33.6029034844981 3.4289020982777569 2 38.030916026343128 2.8621759738815928 2 42.27046213760115 1.8643989650653401 2 44.248538890956056 3.447538284558862 2 48.348813922377417 3.4057567726289184 2 50.895471538565644 2.3786424888712552 2 53.353251632701856 3.1168044815356652 2 58.886158211357461 3.489895202499282 2 62.951620143056324 2.0821477127725077 2 64.487547509398212 3.8769010777555573 2 69.287639986079327 2.4567602519160232 2 71.567261628086271 1.2700000000000002 2 73.932789593135965 4.5990660659241973 2 75.408940657034066 2.7954390755472183 2 77.183179022225218 4.3063516062347365 2 86.758120817831724 3.2649542997944057 2 89.312662446100276 3.1486816867771834 2 92.305671808910674 2.691903498468962 2 94.839699080934167 3.4728408918776106 2 98.73 1.2700000000000002 2 1.2700000000000002 1.2700000000000002 2 3.8048842882026648 1.2700000000000002 2 6.9896352778389144 6.0661446648945354 2 13.436790713890387 1.2703170584070507 2 14.91425458032443 3.3381882895075083 2 26.072620776264237 5.2755721657115471 2 29.516121332527934 3.3615564011200503 2 39.790633794771921 1.2700000000000002 2 41.992871368853379 4.665410944569758 2 46.318055957962102 4.928026216278182 2 55.488599850558089 4.5027016069540657 2 56.644228352146669 2.2587092531762663 2 67.01826858053397 3.4732060456359992 2 69.117584786985532 4.9867330929904359 2 71.506472763734436 3.8091136461596178 2 72.339386531770558 6.6044721391155177 2 75.715271815450322 6.407965013096752 2 86.685332681764521 5.8023416402045926 2 89.222704694360104 5.6910249899995096 2 96.195778428771078 1.3289581778129556 2 98.730000000000004 3.8099999884972386 2 8.8519624515814535 1.1200472159373862 2 17.988742127174479 1.6917979625141317 2 27.136440417418648 3.1378389420769475 2 32.559757912797515 1.4449899829613027 2 35.160050540170126 5.0832821152192942 2 35.784326717428023 2.9365238197046186 2 49.044106915865093 1.12 2 60.909992517442973 1.12 2 73.890429172136066 1.12 2 90.703870212751795 1.12 2 </DataArray>
<DataArray Name="forces" NumberOfComponents="3" format="ascii" type="Float32">2.0950527203191794e-08 4.5386320447737556e-08 0.0 0.0027976499823514629 -0.0021530466311859972 0.0 0.0 0.0 0.0 0.0017507822167261715 0.0021530466311859972 0.0 0.0 0.0 0.0 0.0 0.0 0.0 0.0017627054301338522 -0.00011110571925852733 0.0 0.00030785557137479535 0.00058297358920410432 0.0 -0.001887764835432449 -0.0033264129027501354 0.0 0.0 0.0 0.0 0.0052269570807184466 -0.0047331378791455577 0.0 0.0014319286184908257 0.0027233212809033469 0.0 0.01857083159979318 -0.00059656062255617208 0.0 0.022860494324405265 0.0055168561657586695 0.0 -0.0079024397968818511 -0.0056532352097717073 0.0 -0.0011896405261195913 0.0039158302543219944 0.0 -0.0039471978160693609 0.0033827328414632422 0.0 -0.00069167204305202684 0.001121282332579759 0.0 0.0 0.0 0.0 0.045672607660731057 0.021875382297713911 0.0 -0.047883677310391344 0.0076382983768122793 0.0 -0.082282404343327176 0.043892366487364685 0.0 0.082270361922365545 -0.047785066210989838 0.0 0.032332841837305497 -0.02936692263645084 0.0 0.015635960232795044 0.13619349612644749 0.0 -0.017026426725769952 -0.05905196182581561 0.0 0.0003279849131023546 0.0059237571645784064 0.0 0.00029695781082024594 -0.0083924807709627128 0.0 0.011574403729172508 0.02470668427535843 0.0 0.0 0.0 0.0 0.01915826178670358 -0.00044575656257819134 0.0 -0.0066830850596614208 -4.5386320447737556e-08 0.0 0.0021346319100565836 0.0 0.0 0.0 0.0 0.0 -0.0017627054301338522 0.00011110571925852733 0.0 0.0 0.0 0.0 -0.00048923927939903086 0.00098316051954996323 0.0 -0.0017426541295802287 0.0047331378791455577 0.0 -0.022860494324405265 -0.0055168561657586695 0.0 0.0 0.0 0.0 0.0079024397968818511 0.0056532352097717073 0.0 0.0 0.0 0.0 -0.038636660387348219 0.023171723279138266 0.0 0.047883677310391344 -0.0076382983768122793 0.0 0.0 0.0 0.0 -0.011205370743701922 9.0478198539233837e-05 0.0 -0.024005809647162778 0.030340128466541674 0.0 -0.0083135120182594585 0.018368110036778761 0.0 0.0 0.0 0.0 -0.00029695781082024594 0.0083924807709627128 0.0 -0.01915826178670358 0.00044571327851963176 0.0 0.0 4.3284058559578398e-08 0.0 0.0 0.0 0.0 -9.759542752911243e-05 -9.345778326895257e-05 0.0 -0.0011072988363067385 0.0023432523832001722 0.0 -0.0014319286184908257 -0.0027233212809033469 0.0 0.0 0.0 0.0 -0.017268484662721743 0.0035230237838185883 0.0 0.0011896405261195913 -0.0039158302543219944 0.0 -0.045672607660731057 -0.021875382297713911 0.0 -0.061880540711805911 -0.066700433032968562 0.0 -0.018257621346246856 -0.017930879637903928 0.0 </DataArray>
<DataArray Name="radii" format="ascii" type="Float32">1.2700000000000002 1.2700000000000002 1.2700000000000002 1.12 1.2700000000000002 1.2700000000000002 1.12 1.2700000000000002 1.12 1.2700000000000002 1.12 1.12 1.12 1.2700000000000002 1.2700000000000002 1.2700000000000002 1.12 1.2700000000000002 1.2700000000000002 1.12 1.2700000000000002 1.2700000000000002 1.2700000000000002 1.2700000000000002 1.12 1.2700000000000002 1.2700000000000002 1.2700000000000002 1.12 1.2700000000000002 1.2700000000000002 1.2700000000000002 1.2700000000000002 1.2700000000000002 1.2700000000000002 1.2700000000000002 1.2700000000000002 1.2700000000000002 1.2700000000000002 1.2700000000000002 1.2700000000000002 1.2700000000000002 1.2700000000000002 1.2700000000000002 1.2700000000000002 1.2700000000000002 1.2700000000000002 1.2700000000000002 1.2700000000000002 1.2700000000000002 1.2700000000000002 1.2700000000000002 1.12 1.12 1.12 1.12 1.12 1.12 1.12 1.12 1.12 1.12 </DataArray>
</PointData>
<CellData/>
</Piece>
</UnstructuredGrid>
</VTKFile>
