<?xml version="1.0" ?>
<VTKFile byte_order="LittleEndian" type="UnstructuredGrid" version="0.1">
<UnstructuredGrid>
<Piece NumberOfCells="0" NumberOfPoints="104">
<Points>
<DataArray NumberOfComponents="3" format="ascii" type="Float32">1.6379484464073948 5.2079343206230426 2 7.5171260938268949 1.06 2 5.3066702167940774 5.283104887616032 2 9.3187836078941793 4.4865291516443069 2 11.718329818977269 5.2347265313535871 2 15.287405374031904 7.3097138359977558 2 17.284592005027108 1.3600000000000003 2 24.397384796314867 3.8069667181290754 2 27.454100979508169 1.3600000000000003 2 28.237595725282628 6.5450809080641674 2 30.17412650259789 1.3600000000000003 2 33.480174682032697 4.0809777631020703 2 38.666280691267417 3.9746893281034978 2 41.081626527549638 2.6464848440937518 2 45.409038388125872 2.8713011746093287 2 48.552726590441189 3.7205337669641225 2 50.978157394592699 3.3173453006109082 2 53.164683475163898 4.3548995765031009 2 58.813213433995564 4.0091314659073971 2 63.156595310687003 1.621080424125761 2 62.954229990762123 6.1520415865034446 2 67.285965905643607 3.0893132567918173 2 70.934246456937956 1.06 2 73.502010345191692 6.5859763538374079 2 74.067858669725823 3.990126743588569 2 77.619031360111691 5.6664933698166964 2 88.319838601413679 3.7917862087305556 2 90.430210863195413 3.582038953767988 2 93.086249605948126 3.4823683416604778 2 95.088140904250395 4.8625358918588679 2 96.819594899592317 1.06 2 1.06 3.1677869030545263 2 3.3415513823330221 1.5778222611800377 2 7.3390043358861439 5.8864691054944931 2 14.524135708506373 1.06 2 14.902807713762718 5.2249035704719757 2 25.274455664872949 5.7431104692427333 2 29.316917869147286 4.7201637462250075 2 39.533267001243402 1.1984641231890463 2 41.078433320400087 5.9286569755953087 2 46.32290197584917 6.0574374340408683 2 55.785759617888317 4.8856730592531159 2 56.921273826474049 3.0526955558140312 2 65.042094916954255 3.4176372343444354 2 68.10381369507769 6.2985804884317265 2 71.183557191677764 3.1634335150606723 2 72.646246019580971 8.5248574112656712 2 74.773246881711572 8.2834359811669618 2 88.951046293264142 8.2095588516171478 2 90.938234422993588 7.4692968633367167 2 95.372893898279443 2.6368715299461227 2 98.612505465660632 5.3457199085624438 2 9.9184985134596531 1.3603638356071819 2 19.559296901398405 2.851288346154556 2 26.994087145451189 4.0406590223023837 2 32.894750727728933 1.3636786158901035 2 35.373790406256049 6.033147157752091 2 36.056129454709932 3.2091779397310387 2 49.090635131176555 1.3600636482703692 2 60.470500436009807 1.3619414433879209 2 73.347059257822636 1.385554826715067 2 91.457853004472739 1.3717324477083255 2 3.115192035510022 3.6870312428437551 2 7.2900483360161612 3.1676697000653369 2 5.1699001999984251 3.1676428162616985 2 11.580596058468588 3.1191963011533574 2 17.104139638918078 6.1342391404259757 2 25.074415024300059 1.7979678990117527 2 30.238450969539226 7.2460712926453956 2 42.487707142407309 1.0600046366547784 2 44.484493945782603 4.7792093073495225 2 48.431434328284752 5.8370800788938491 2 54.800841421690144 3.0090628455134842 2 60.915092488075345 3.7406214116449954 2 63.015046307395764 4.0323626499411214 2 69.339077178459462 4.3886727311888789 2 69.261892666176706 2.2709717064116215 2 71.930054307558933 5.1519223685133628 2 75.604635852542586 6.3202228317026004 2 86.269227812307065 3.2816907897298364 2 89.718630060372703 5.5788857518689969 2 95.831257999028338 6.8300194840883641 2 98.939999999999998 1.06 2 1.2858776675385013 1.06 2 5.3974143006867781 1.06 2 7.0958766634635246 7.9924786900862292 2 13.908172760693729 3.0954881016049867 2 16.004186604644705 3.4134776815379677 2 26.37414137383082 7.5556030464444213 2 31.110106761937157 3.5907951421968747 2 37.417810083029231 1.06 2 42.422118428812965 4.2888717110494055 2 44.340143148272404 6.8940714521205297 2 55.198509150388603 6.9227675410038394 2 55.877768447158132 1.1767632417023977 2 66.432659330061682 5.0202475878442776 2 68.408560413158 8.4012034052698557 2 70.228299722307341 6.3519907563764608 2 70.528939153488977 8.4492166789360983 2 75.528630202781713 10.264368060954306 2 87.593994685329704 9.9155240592807505 2 91.827321263647633 5.55260839611711 2 96.984559781496387 3.9688709876652473 2 98.94 3.1704684534018903 2 </DataArray>
</Points>
<Cells>
<DataArray Name="connectivity" format="ascii" type="Int32">0</DataArray>
<DataArray Name="offsets" format="ascii" type="Int32">0</DataArray>
<DataArray Name="types" format="ascii" type="UInt8">1</DataArray>
</Cells>
<PointData>
<DataArray Name="Points" NumberOfComponents="3" format="ascii" type="Float32">1.6379484464073948 5.2079343206230426 2 7.5171260938268949 1.06 2 5.3066702167940774 5.283104887616032 2 9.3187836078941793 4.4865291516443069 2 11.718329818977269 5.2347265313535871 2 15.287405374031904 7.3097138359977558 2 17.284592005027108 1.3600000000000003 2 24.397384796314867 3.8069667181290754 2 27.454100979508169 1.3600000000000003 2 28.237595725282628 6.5450809080641674 2 30.17412650259789 1.3600000000000003 2 33.480174682032697 4.0809777631020703 2 38.666280691267417 3.9746893281034978 2 41.081626527549638 2.6464848440937518 2 45.409038388125872 2.8713011746093287 2 48.552726590441189 3.7205337669641225 2 50.978157394592699 3.3173453006109082 2 53.164683475163898 4.3548995765031009 2 58.813213433995564 4.0091314659073971 2 63.156595310687003 1.621080424125761 2 62.954229990762123 6.1520415865034446 2 67.285965905643607 3.0893132567918173 2 70.934246456937956 1.06 2 73.502010345191692 6.5859763538374079 2 74.067858669725823 3.990126743588569 2 77.619031360111691 5.6664933698166964 2 88.319838601413679 3.7917862087305556 2 90.430210863195413 3.582038953767988 2 93.086249605948126 3.4823683416604778 2 95.088140904250395 4.8625358918588679 2 96.819594899592317 1.06 2 1.06 3.1677869030545263 2 3.3415513823330221 1.5778222611800377 2 7.3390043358861439 5.8864691054944931 2 14.524135708506373 1.06 2 14.902807713762718 5.2249035704719757 2 25.274455664872949 5.7431104692427333 2 29.316917869147286 4.7201637462250075 2 39.533267001243402 1.1984641231890463 2 41.078433320400087 5.9286569755953087 2 46.32290197584917 6.0574374340408683 2 55.785759617888317 4.8856730592531159 2 56.921273826474049 3.0526955558140312 2 65.042094916954255 3.4176372343444354 2 68.10381369507769 6.2985804884317265 2 71.183557191677764 3.1634335150606723 2 72.646246019580971 8.5248574112656712 2 74.773246881711572 8.2834359811669618 2 88.951046293264142 8.2095588516171478 2 90.938234422993588 7.4692968633367167 2 95.372893898279443 2.6368715299461227 2 98.612505465660632 5.3457199085624438 2 9.9184985134596531 1.3603638356071819 2 19.559296901398405 2.851288346154556 2 26.994087145451189 4.0406590223023837 2 32.894750727728933 1.3636786158901035 2 35.373790406256049 6.033147157752091 2 36.056129454709932 3.2091779397310387 2 49.090635131176555 1.3600636482703692 2 60.470500436009807 1.3619414433879209 2 73.347059257822636 1.385554826715067 2 91.457853004472739 1.3717324477083255 2 3.115192035510022 3.6870312428437551 2 7.2900483360161612 3.1676697000653369 2 5.1699001999984251 3.1676428162616985 2 11.580596058468588 3.1191963011533574 2 17.104139638918078 6.1342391404259757 2 25.074415024300059 1.7979678990117527 2 30.238450969539226 7.2460712926453956 2 42.487707142407309 1.0600046366547784 2 44.484493945782603 4.7792093073495225 2 48.431434328284752 5.8370800788938491 2 54.800841421690144 3.0090628455134842 2 60.915092488075345 3.7406214116449954 2 63.015046307395764 4.0323626499411214 2 69.339077178459462 4.3886727311888789 2 69.261892666176706 2.2709717064116215 2 71.930054307558933 5.1519223685133628 2 75.604635852542586 6.3202228317026004 2 86.269227812307065 3.2816907897298364 2 89.718630060372703 5.5788857518689969 2 95.831257999028338 6.8300194840883641 2 98.939999999999998 1.06 2 1.2858776675385013 1.06 2 5.3974143006867781 1.06 2 7.0958766634635246 7.9924786900862292 2 13.908172760693729 3.0954881016049867 2 16.004186604644705 3.4134776815379677 2 26.37414137383082 7.5556030464444213 2 31.110106761937157 3.5907951421968747 2 37.417810083029231 1.06 2 42.422118428812965 4.2888717110494055 2 44.340143148272404 6.8940714521205297 2 55.198509150388603 6.9227675410038394 2 55.877768447158132 1.1767632417023977 2 66.432659330061682 5.0202475878442776 2 68.408560413158 8.4012034052698557 2 70.228299722307341 6.3519907563764608 2 70.528939153488977 8.4492166789360983 2 75.528630202781713 10.264368060954306 2 87.593994685329704 9.9155240592807505 2 91.827321263647633 5.55260839611711 2 96.984559781496387 3.9688709876652473 2 98.94 3.1704684534018903 2 </DataArray>
<DataArray Name="forces" NumberOfComponents="3" format="ascii" type="Float32">-0.00013045593381349419 0.00013435630432505561 0.0 -0.00057130558616550191 -0.00018946217475730059 0.0 -4.1700933306619025e-05 -1.2380272895576103e-05 0.0 0.0 0.0 0.0 3.6075941376629644e-06 5.5411065728058442e-05 0.0 2.0650231558620012e-06 1.119435368386429e-05 0.0 -6.2500693567364485e-06 -5.5625901445407086e-05 0.0 -4.0523324226385111e-05 0.00012027335524627102 0.0 -0.00053634095875648865 -0.00017075028768075815 0.0 -0.0004405215877791135 0.00065956429027436505 0.0 0.00047892429363605924 -0.00020641548681286402 0.0 0.0017927170714548634 0.00037085666946772282 0.0 0.00053291278289798903 0.00015629393370160215 0.0 -3.455744812657315e-05 -5.0284645147138885e-05 0.0 0.00030991167876155326 -0.00063953984823241297 0.0 0.0 0.0 0.0 -0.0011514895154726872 -0.00054640686934391081 0.0 0.0011514895154726872 0.00054640686934391081 0.0 0.0006150059221321126 0.00031087736156300007 0.0 -0.033291219695323872 0.0072465656467640693 0.0 -0.00012042420263442279 0.0042963130897788184 0.0 -0.03114656646285642 0.012932876207322948 0.0 -0.093593318417728416 -0.01659385495216615 0.0 0.00050603385410771026 0.0012379120045170611 0.0 0.064177512299271641 -0.034702974192463112 0.0 -0.02542277606400838 -0.04252534943734259 0.0 -0.0046556916819666654 0.0004627233630431208 0.0 0.0046556916819666654 -0.0004627233630431208 0.0 -0.037663990365765218 -0.05049825608764881 0.0 0.045815873101988272 0.031256387575119185 0.0 0.0 0.0 0.0 -0.00069063145854226116 -6.3531610695792844e-05 0.0 -0.0003489676612780262 8.7906408858485921e-05 0.0 4.1700933306619025e-05 1.2380272895576103e-05 0.0 0.00021690426090709955 -4.0178381654276654e-06 0.0 -1.8633233212530704e-05 1.6055391835081472e-05 0.0 -2.825133293577196e-05 -4.6563605241960853e-05 0.0 0.0008572199727473976 -0.00053998553486608305 0.0 -2.464593110908469e-05 -2.5433469742230131e-05 0.0 -3.0332315949829213e-05 3.7018465223569565e-05 0.0 0.0 0.0 0.0 8.6163831201661748e-05 -0.00029889097545502042 0.0 -0.00031166544216545164 -0.00030430256278595071 0.0 -0.0071631559928340078 -0.0082554593297817849 0.0 -0.037867132219412819 -0.0071813601581993698 0.0 -0.0036275376667409933 -0.0062621309574475616 0.0 -0.0001176253258405145 0.00026669127959953688 0.0 -0.00010168593705120323 -0.00026421488419535894 0.0 -0.0033632051217812342 0.0012528521447960053 0.0 0.0033632051217812342 -0.0012528521447960053 0.0 0.036806192645150587 0.03052534467505617 0.0 0.013434130223705914 0.011557300652486729 0.0 0.00058389174541730992 7.3043340275535124e-05 0.0 -7.8451875582284124e-06 9.5185778032928412e-06 0.0 -0.00048787723572560945 3.6490808899192418e-05 0.0 -6.7804379791086252e-05 1.0575179723258748e-05 0.0 0.0 0.0 0.0 -0.00053291278289798903 -0.00015629393370160215 0.0 0.0010280004632002295 0.00010930888797792764 0.0 0.030221237051171093 0.0032533493835665843 0.0 0.093245488849782357 0.012872120185613612 0.0 0.12345445601516007 0.020149185591732822 0.0 0.00080950881593477983 3.7226397946829093e-05 0.0 0.00076351022146103366 0.00011649829156670437 0.0 -0.00082377611979775854 0.00044294533646734404 0.0 -3.6075941376629644e-06 -5.5411065728058442e-05 0.0 0.0 0.0 0.0 0.00025799607276767662 -2.8883986823587812e-05 0.0 4.1875259752767718e-05 1.4680723373283767e-05 0.0 -0.00027324210772858374 7.9629434519249615e-06 0.0 -0.00030991167876155326 0.00063953984823241297 0.0 0.0 0.0 0.0 -0.0024301477374061601 0.0036460090436539689 0.0 -0.0023991014152277019 -0.00033617030176108005 0.0 0.0025195256178621246 -0.0039601427880177386 0.0 0.0012627859543235442 0.024589970797460767 0.0 0.0532640954498338 -0.01848373266126415 0.0 -0.061646297468083887 0.043315292878458589 0.0 0.0010557438752320919 -0.00013305624611197964 0.0 0.010660838774408014 0.016401579618994098 0.0 0.024231807322981587 -0.0020905764480409787 0.0 0.0 0.0 0.0 0.0 -0.0045098230853741761 0.0 1.1578576420975555e-05 -0.00010805109157609186 0.0 0.00039664740036294313 -0.00053093120241076881 0.0 0.0 0.0 0.0 -4.5072151521451752e-06 -6.8378388603320148e-07 0.0 -1.7312350613915034e-06 1.0010530985886435e-05 0.0 2.825133293577196e-05 4.6563605241960853e-05 0.0 -0.0017059968153298763 -0.0001644411826548588 0.0 -2.7416529193210568e-06 -1.7946897308172461e-07 0.0 9.2277348104808106e-05 3.8879118638881181e-05 0.0 0.0 0.0 0.0 -8.6163831201661748e-05 0.00029889097545502042 0.0 0.018684515298356137 -0.0030473234775938349 0.0 0.0071631559928340078 0.0082554593297817849 0.0 0.00079625798574530654 0.0061653936063445422 0.0 0.03481023922477057 -0.013479696004883151 0.0 0.0022606350088969457 0.014495662556737978 0.0 -0.010360543707236923 0.0043148720003538532 0.0 0.0042605042493131743 0.0045901541997718717 0.0 -0.01338293239508161 0.021323474092996789 0.0 -0.045404928106599296 0.0015767789873553494 0.0 0.031970797882893386 -0.0086242565544679024 0.0 </DataArray>
<DataArray Name="radii" format="ascii" type="Float32">1.06 1.06 1.06 1.3600000000000003 1.06 1.06 1.3600000000000003 1.06 1.3600000000000003 1.06 1.3600000000000003 1.3600000000000003 1.3600000000000003 1.06 1.06 1.06 1.3600000000000003 1.06 1.06 1.3600000000000003 1.06 1.06 1.06 1.06 1.3600000000000003 1.06 1.06 1.06 1.3600000000000003 1.06 1.06 1.06 1.06 1.06 1.06 1.06 1.06 1.06 1.06 1.06 1.06 1.06 1.06 1.06 1.06 1.06 1.06 1.06 1.06 1.06 1.06 1.06 1.3600000000000003 1.3600000000000003 1.3600000000000003 1.3600000000000003 1.3600000000000003 1.3600000000000003 1.3600000000000003 1.3600000000000003 1.3600000000000003 1.3600000000000003 1.06 1.06 1.06 1.06 1.06 1.06 1.06 1.06 1.06 1.06 1.06 1.06 1.06 1.06 1.06 1.06 1.06 1.06 1.06 1.06 1.06 1.06 1.06 1.06 1.06 1.06 1.06 1.06 1.06 1.06 1.06 1.06 1.06 1.06 1.06 1.06 1.06 1.06 1.06 1.06 1.06 1.06 </DataArray>
</PointData>
<CellData/>
</Piece>
</UnstructuredGrid>
</VTKFile>
