<?xml version="1.0" ?>
<VTKFile byte_order="LittleEndian" type="UnstructuredGrid" version="0.1">
<UnstructuredGrid>
<Piece NumberOfCells="0" NumberOfPoints="29">
<Points>
<DataArray NumberOfComponents="3" format="ascii" type="Float32">11.490471044866474 1.1 2 20.131053244394192 3.8413620588424382 2 20.614989082011807 1 2 22.079731074524293 2.6251923454650159 2 23.657233974474398 1 2 35.008157965222608 1 2 44.499727903664478 1 2 46.596345821038163 1.119244638913401 2 52.37650566740637 1 2 54.474176773742606 1.1 2 58.560111359866404 1.1 2 65.183299586297366 1.1001246035334149 2 67.281109804895166 1 2 82.012520547058955 1.4000000000000004 2 84.83162940025808 1.4000000000000004 2 87.140282032687708 1 2 89.145171738208006 1 2 93.589779944118277 1.1 2 78.031534098450322 7.2469253715907573 2 82.081551307476573 9.1224204658957877 2 77.780490160419475 2.4679881745830308 2 85.077440482173486 5.2006628011050946 2 79.743333269232053 5.5672145237361894 2 80.151335850489488 2.862389240737798 2 83.501354266828002 3.4065788095146732 2 82.530567430692884 6.3655931349753399 2 75.932934286407317 1 2 84.803726108299955 7.9905333837247428 2 81.666364274674891 4.1215472269589304 2 </DataArray>
</Points>
<Cells>
<DataArray Name="connectivity" format="ascii" type="Int32">0</DataArray>
<DataArray Name="offsets" format="ascii" type="Int32">0</DataArray>
<DataArray Name="types" format="ascii" type="UInt8">1</DataArray>
</Cells>
<PointData>
<DataArray Name="Points" NumberOfComponents="3" format="ascii" type="Float32">11.490471044866474 1.1 2 20.131053244394192 3.8413620588424382 2 20.614989082011807 1 2 22.079731074524293 2.6251923454650159 2 23.657233974474398 1 2 35.008157965222608 1 2 44.499727903664478 1 2 46.596345821038163 1.119244638913401 2 52.37650566740637 1 2 54.474176773742606 1.1 2 58.560111359866404 1.1 2 65.183299586297366 1.1001246035334149 2 67.281109804895166 1 2 82.012520547058955 1.4000000000000004 2 84.83162940025808 1.4000000000000004 2 87.140282032687708 1 2 89.145171738208006 1 2 93.589779944118277 1.1 2 78.031534098450322 7.2469253715907573 2 82.081551307476573 9.1224204658957877 2 77.780490160419475 2.4679881745830308 2 85.077440482173486 5.2006628011050946 2 79.743333269232053 5.5672145237361894 2 80.151335850489488 2.862389240737798 2 83.501354266828002 3.4065788095146732 2 82.530567430692884 6.3655931349753399 2 75.932934286407317 1 2 84.803726108299955 7.9905333837247428 2 81.666364274674891 4.1215472269589304 2 </DataArray>
<DataArray Name="forces" NumberOfComponents="3" format="ascii" type="Float32">0.15709660784780541 -0.0080379284456596201 0.0 0.019190824376749616 0.023889383716492664 0.0 0.028379710440296749 -0.015657593665067616 0.0 -0.017917645124810689 -0.0042584785065822644 0.0 0.0 0.0 0.0 -3.0724843032125614e-05 -8.7735446402717538e-05 0.0 -0.00015822866597865639 -8.9995706695793743e-06 0.0 0.00015822866597865639 8.9995706695793743e-06 0.0 -0.00031034060062186717 -1.4797101824996281e-05 0.0 0.00039006417741356547 -0.00013991824154802206 0.0 0.001328172708631272 -0.00089080658619017719 0.0 -0.0050109436271834366 0.00023946071042474755 0.0 0.0050109436271834366 -0.00023946071042474755 0.0 -0.064738733503540966 -0.00023302383296478364 0.0 0.096432828283271738 -0.049204398446495594 0.0 -0.12013641908905015 0.0 0.0 0.12013641908905015 0.0 0.0 0.13571498948661467 -0.0078797568446100225 0.0 0.0 0.0 0.0 0.0 0.0 0.0 -0.093036918544015287 -0.022521422978785004 0.0 -0.011191996720370308 -0.011034666005975899 0.0 -0.019120245131266787 0.014155166818900165 0.0 0.095139221233724147 0.015676687598957531 0.0 -0.031694094779730779 0.04943742227946038 0.0 0.012817036472306018 0.0327947539169932 0.0 0.058036736851707939 -0.0058146519045523806 0.0 -0.00039013246305848355 0.0038856200293670242 0.0 0.006303208658960769 -0.046949920735893366 0.0 </DataArray>
<DataArray Name="radii" format="ascii" type="Float32">1.1 1.1 1 1.2000000000000002 1 1 1 1.1 1 1.1 1.1 1.1 1 1.4000000000000004 1.4000000000000004 1 1 1.1 1 1.4000000000000004 1.4000000000000004 1.4000000000000004 1.4000000000000004 1 1 1.4000000000000004 1 1.4000000000000004 1 </DataArray>
</PointData>
<CellData/>
</Piece>
</UnstructuredGrid>
</VTKFile>
