<?xml version="1.0" ?>
<VTKFile byte_order="LittleEndian" type="UnstructuredGrid" version="0.1">
<UnstructuredGrid>
<Piece NumberOfCells="0" NumberOfPoints="37">
<Points>
<DataArray NumberOfComponents="3" format="ascii" type="Float32">11.954483465807549 1.1 2 20.475638005652705 4.5746316012550476 2 20.871133120862343 1 2 22.033343167284777 2.8643189148192074 2 23.657233974474398 1 2 35.178616668579842 1 2 44.446544657572055 1 2 46.542983442384809 1.1155825767414167 2 52.332531017874835 1 2 54.430975443316925 1.1 2 58.453734145613872 1.1 2 65.23855723257968 1.1000001606411896 2 67.336175132182376 1 2 80.970043665610547 1 2 85.161652500593775 1.9095460400572668 2 86.907713016131225 1 2 88.910028654897516 1 2 93.490450913256538 1.1 2 77.640729904679603 7.9252544841887866 2 82.439244090270265 9.5465765769006321 2 78.216025769988732 1.5140227937548858 2 84.676296224309255 5.4224855058156329 2 78.89748284001243 6.3688450639605101 2 80.040551691830231 3.0417419875631695 2 84.003866541859054 3.5434207881375985 2 81.583337433803038 6.7512680989544807 2 75.845277760248109 1 2 84.673111312931965 9.2217142055561485 2 82.318378853826871 4.5952242436656023 2 82.180598311568446 2.596424756883037 2 83.378989861138663 1 2 80.571350122213119 10.281696163569816 2 77.400327541526721 3.3400897097370903 2 86.659846275703629 5.7710825553333436 2 80.362560804619932 5.0161322600423901 2 83.55500740179923 7.0830104081624548 2 85.528513270806201 7.4132648194806974 2 </DataArray>
</Points>
<Cells>
<DataArray Name="connectivity" format="ascii" type="Int32">0</DataArray>
<DataArray Name="offsets" format="ascii" type="Int32">0</DataArray>
<DataArray Name="types" format="ascii" type="UInt8">1</DataArray>
</Cells>
<PointData>
<DataArray Name="Points" NumberOfComponents="3" format="ascii" type="Float32">11.954483465807549 1.1 2 20.475638005652705 4.5746316012550476 2 20.871133120862343 1 2 22.033343167284777 2.8643189148192074 2 23.657233974474398 1 2 35.178616668579842 1 2 44.446544657572055 1 2 46.542983442384809 1.1155825767414167 2 52.332531017874835 1 2 54.430975443316925 1.1 2 58.453734145613872 1.1 2 65.23855723257968 1.1000001606411896 2 67.336175132182376 1 2 80.970043665610547 1 2 85.161652500593775 1.9095460400572668 2 86.907713016131225 1 2 88.910028654897516 1 2 93.490450913256538 1.1 2 77.640729904679603 7.9252544841887866 2 82.439244090270265 9.5465765769006321 2 78.216025769988732 1.5140227937548858 2 84.676296224309255 5.4224855058156329 2 78.89748284001243 6.3688450639605101 2 80.040551691830231 3.0417419875631695 2 84.003866541859054 3.5434207881375985 2 81.583337433803038 6.7512680989544807 2 75.845277760248109 1 2 84.673111312931965 9.2217142055561485 2 82.318378853826871 4.5952242436656023 2 82.180598311568446 2.596424756883037 2 83.378989861138663 1 2 80.571350122213119 10.281696163569816 2 77.400327541526721 3.3400897097370903 2 86.659846275703629 5.7710825553333436 2 80.362560804619932 5.0161322600423901 2 83.55500740179923 7.0830104081624548 2 85.528513270806201 7.4132648194806974 2 </DataArray>
<DataArray Name="forces" NumberOfComponents="3" format="ascii" type="Float32">0.15157846919248308 -0.011652238318831953 0.0 0.015133173264512313 0.024542083682895677 0.0 0.0046914037938185511 -0.0066421210127979901 0.0 -0.0022539954428053809 0.00085766039024711229 0.0 0.0 0.0 0.0 1.5104807348534353e-05 -2.6291309749833594e-05 0.0 0.00066126284861334021 -0.00024165966556554148 0.0 -0.00099860717594558589 -6.5216192494493985e-05 0.0 0.0 0.0 0.0 3.3244228379133403e-05 -0.00014688649224217756 0.0 9.5348871679803692e-06 -7.1964920127156927e-06 0.0 -6.5211717349015519e-06 3.1088563305606896e-07 0.0 6.5211717349015519e-06 -3.1088563305606896e-07 0.0 0.0 0.0 0.0 0.038120366027209751 -0.023300030432452934 0.0 -0.061830474625019623 -0.0062212865786464688 0.0 0.061317556575758658 0.0 0.0 0.08431528822325382 -0.0066208893307442857 0.0 -0.0028244399988330737 0.0035007707745436647 0.0 0.0 0.0 0.0 0.0 0.0 0.0 0.0 0.0 0.0 0.0044116296968366954 -0.0029883696281208846 0.0 -0.0003885279217560917 -0.0023212004710849964 0.0 -0.02221291722399972 0.031654562850532544 0.0 0.0 0.0 0.0 0.0 0.0 0.0 -0.0026389323788997524 0.0055879317751228114 0.0 0.015821476030988022 -0.0033948597877229286 0.0 0.0 0.0 0.0 -0.015907448803210031 -0.0083545324180796087 0.0 0.0 0.0 0.0 0.00022430212790157215 4.9410886876834185e-06 0.0 -0.0027352540215510391 0.013531843938183713 0.0 -0.015432948109231931 0.005716060258807925 0.0 -0.0024223078688504923 -0.00040918550703725328 0.0 0.0050612402477502446 -0.0051787462680855578 0.0 </DataArray>
<DataArray Name="radii" format="ascii" type="Float32">1.1 1.1 1 1.2000000000000002 1 1 1 1.1 1 1.1 1.1 1.1 1 1 1 1 1 1.1 1 1 1 1 1 1 1 1 1 1 1 1 1 1 1 1 1 1 1 </DataArray>
</PointData>
<CellData/>
</Piece>
</UnstructuredGrid>
</VTKFile>
