<?xml version="1.0" ?>
<VTKFile byte_order="LittleEndian" type="UnstructuredGrid" version="0.1">
<UnstructuredGrid>
<Piece NumberOfCells="0" NumberOfPoints="62">
<Points>
<DataArray NumberOfComponents="3" format="ascii" type="Float32">2.3759317749298128 3.6669397185059713 2 6.4782915873353701 1.3020845044257807 2 5.5385846307308473 3.9268618372218245 2 7.9034208077072217 3.2719963073429099 2 11.678104653211221 3.4203299766069035 2 15.574952080547666 5.9432083561835185 2 15.863569499771238 1.1500000000000001 2 24.673675478468311 3.0697782991358777 2 28.091296966071791 1.1500000000000001 2 28.921557229414464 5.9733299504664119 2 30.392304789118093 1.1500000000000001 2 33.511366469664061 3.5239190348413607 2 38.049257478618287 3.0580914797795415 2 42.287112735210776 1.843465863982112 2 44.300691801635175 3.470906907850138 2 48.395817840008114 3.5198536600586539 2 50.90116730179173 2.4842342918632139 2 53.31488902444849 3.1565164635623084 2 58.932253036043278 3.5169324342010095 2 62.987560219701464 2.0702996321564915 2 64.393089233923604 4.0985131200410709 2 69.277519382277575 2.4483552695757984 2 71.547221752947223 1.3000000000000003 2 73.827820124296579 4.7829412269628602 2 75.432139626185759 2.8874814075050907 2 77.299179610453692 4.61228022529132 2 86.785939176730821 3.2968022517322635 2 89.390160599215477 3.2067113780522924 2 92.341508456349146 2.87435410110329 2 94.795857567822111 3.5442820829423849 2 98.7 1.3000000000000003 2 1.3000000000000003 1.3000000000000003 2 3.8374673632148011 1.3000000000000003 2 7.003721707704277 6.0875624906445207 2 13.423490970597932 1.3000000000000003 2 14.919835020525021 3.4285397451975879 2 26.004189166244213 5.4121074582292819 2 29.557731130419114 3.4552363646217437 2 39.7266297992105 1.3000000000000003 2 41.975424544458896 4.6748184367473566 2 46.333379437311883 5.0931128884384007 2 55.453718541866735 4.6532980021743438 2 56.618510955509151 2.3151578077395811 2 66.905280256992683 3.5890532724913178 2 69.092396239811322 5.0649576064984858 2 71.433148131501298 3.890817033382012 2 72.220627516448189 6.7512378372325621 2 75.710325890519897 6.5950595311394746 2 86.820857662802112 5.9432632338501428 2 89.467277117950843 5.7839399646656346 2 96.109889765163615 1.3000000000000003 2 98.700000000000003 3.9000055303934849 2 8.8074245878088586 1.1500000000000001 2 18.101204184999638 1.6851540022932676 2 27.115973039985807 3.234546048949634 2 32.676995676343864 1.3802251609944032 2 35.152114515232256 5.1837472179055197 2 35.760942866996565 2.9600037790861062 2 49.028716098058666 1.1500000000000001 2 60.923644067679177 1.1500000000000001 2 74.040464238850277 1.1500000000000001 2 90.87776111120057 1.1500000000000001 2 </DataArray>
</Points>
<Cells>
<DataArray Name="connectivity" format="ascii" type="Int32">0</DataArray>
<DataArray Name="offsets" format="ascii" type="Int32">0</DataArray>
<DataArray Name="types" format="ascii" type="UInt8">1</DataArray>
</Cells>
<PointData>
<DataArray Name="Points" NumberOfComponents="3" format="ascii" type="Float32">2.3759317749298128 3.6669397185059713 2 6.4782915873353701 1.3020845044257807 2 5.5385846307308473 3.9268618372218245 2 7.9034208077072217 3.2719963073429099 2 11.678104653211221 3.4203299766069035 2 15.574952080547666 5.9432083561835185 2 15.863569499771238 1.1500000000000001 2 24.673675478468311 3.0697782991358777 2 28.091296966071791 1.1500000000000001 2 28.921557229414464 5.9733299504664119 2 30.392304789118093 1.1500000000000001 2 33.511366469664061 3.5239190348413607 2 38.049257478618287 3.0580914797795415 2 42.287112735210776 1.843465863982112 2 44.300691801635175 3.470906907850138 2 48.395817840008114 3.5198536600586539 2 50.90116730179173 2.4842342918632139 2 53.31488902444849 3.1565164635623084 2 58.932253036043278 3.5169324342010095 2 62.987560219701464 2.0702996321564915 2 64.393089233923604 4.0985131200410709 2 69.277519382277575 2.4483552695757984 2 71.547221752947223 1.3000000000000003 2 73.827820124296579 4.7829412269628602 2 75.432139626185759 2.8874814075050907 2 77.299179610453692 4.61228022529132 2 86.785939176730821 3.2968022517322635 2 89.390160599215477 3.2067113780522924 2 92.341508456349146 2.87435410110329 2 94.795857567822111 3.5442820829423849 2 98.7 1.3000000000000003 2 1.3000000000000003 1.3000000000000003 2 3.8374673632148011 1.3000000000000003 2 7.003721707704277 6.0875624906445207 2 13.423490970597932 1.3000000000000003 2 14.919835020525021 3.4285397451975879 2 26.004189166244213 5.4121074582292819 2 29.557731130419114 3.4552363646217437 2 39.7266297992105 1.3000000000000003 2 41.975424544458896 4.6748184367473566 2 46.333379437311883 5.0931128884384007 2 55.453718541866735 4.6532980021743438 2 56.618510955509151 2.3151578077395811 2 66.905280256992683 3.5890532724913178 2 69.092396239811322 5.0649576064984858 2 71.433148131501298 3.890817033382012 2 72.220627516448189 6.7512378372325621 2 75.710325890519897 6.5950595311394746 2 86.820857662802112 5.9432632338501428 2 89.467277117950843 5.7839399646656346 2 96.109889765163615 1.3000000000000003 2 98.700000000000003 3.9000055303934849 2 8.8074245878088586 1.1500000000000001 2 18.101204184999638 1.6851540022932676 2 27.115973039985807 3.234546048949634 2 32.676995676343864 1.3802251609944032 2 35.152114515232256 5.1837472179055197 2 35.760942866996565 2.9600037790861062 2 49.028716098058666 1.1500000000000001 2 60.923644067679177 1.1500000000000001 2 74.040464238850277 1.1500000000000001 2 90.87776111120057 1.1500000000000001 2 </DataArray>
<DataArray Name="forces" NumberOfComponents="3" format="ascii" type="Float32">0.0 0.0 0.0 0.031581701692189088 0.0010675655936883538 0.0 0.0 0.0 0.0 0.0 0.0 0.0 0.0 0.0 0.0 0.00094953753114312793 0.0036189137034419163 0.0 0.0054316261084419032 -0.0046699501621152092 0.0 7.8038792998835136e-05 0.0001609764700237871 0.0 0.00044349243355121552 -0.0058653545134384408 0.0 -0.0005318293624927493 0.0021020406809237925 0.0 0.0021370191009364688 -0.004577119880514912 0.0 -0.0077157246225124211 0.0033661273419612514 0.0 0.0044737999861717663 0.0020392723187255845 0.0 0.004937866350721588 0.0010533172141874553 0.0 0.0010526728678351832 0.00086761567027533954 0.0 -0.00078555696577782119 0.002941646731743271 0.0 -0.0024654418610285237 0.0036104399852037203 0.0 0.0 0.0 0.0 0.0 0.0 0.0 -0.0039527919537364134 -0.0035063260968408718 0.0 0.0015658454654727877 0.011626029683927855 0.0 0.010303606779304423 -0.0037640243328667528 0.0 -0.012894313542919872 -0.0041131707425398137 0.0 -0.027022863605930772 0.021988122498721972 0.0 -0.01367398203067304 -0.017994994748965765 0.0 0.010610794430247624 0.051214359657147185 0.0 0.0020291394923800249 0.00068228040589327597 0.0 0.0068862330667430194 0.011084854315115472 0.0 4.1775085013575144e-06 0.0056564268477790614 0.0 -0.0014767246024490082 0.0025141776543068507 0.0 0.014056606398091809 0.0 0.0 -0.034511690284211305 0.0 0.0 -0.014350748320353102 0.0 0.0 0.0 0.0 0.0 -0.002085464955345315 -0.0024270570297754705 0.0 0.0028909318165124555 0.0018704016929710389 0.0 -0.0011886247146623331 0.0023290896945512003 0.0 -0.0010521926840299926 0.0022976145106966498 0.0 -0.010637696647444201 -0.0044271517375102888 0.0 0.0 0.0 0.0 0.0027171123477371458 0.0021684894811440435 0.0 -0.0049248614050207383 0.0098912494398598373 0.0 0.00064323579290736805 -0.00064341433051921977 0.0 -0.015078377518324962 0.0088694691192298877 0.0 -0.0056612771386081728 0.0028415239988432272 0.0 0.0059605041293056488 -0.002614703553968002 0.0 -0.0051971361776854894 0.0062969328905632914 0.0 0.0041311029863930144 0.0041882473282787739 0.0 -0.016291752069438999 0.0034502116485472137 0.0 0.020151281400288105 0.00060776095035698814 0.0 -0.002134021056167227 -0.0016367918204433433 0.0 0.0 0.0 0.0 -0.019081794686401959 -0.00024602268049173505 0.0 0.012703118218600998 0.0040330400804753251 0.0 -0.0015537865292137283 0.0035362648188872405 0.0 0.0012290150801573083 -0.0011180472163520899 0.0 -0.0010676423677618166 0.0039822342349008066 0.0 0.0062543816022887673 0.00081677695668417455 0.0 1.8810181699650623e-05 -0.0034837090110036964 0.0 0.01132397488760695 -0.0036511690033535615 0.0 0.024009942643622374 -0.00163716221489825 0.0 0.033483439319910685 -0.00010635353675857336 0.0 </DataArray>
<DataArray Name="radii" format="ascii" type="Float32">1.3000000000000003 1.3000000000000003 1.3000000000000003 1.1500000000000001 1.3000000000000003 1.3000000000000003 1.1500000000000001 1.3000000000000003 1.1500000000000001 1.3000000000000003 1.1500000000000001 1.1500000000000001 1.1500000000000001 1.3000000000000003 1.3000000000000003 1.3000000000000003 1.1500000000000001 1.3000000000000003 1.3000000000000003 1.1500000000000001 1.3000000000000003 1.3000000000000003 1.3000000000000003 1.3000000000000003 1.1500000000000001 1.3000000000000003 1.3000000000000003 1.3000000000000003 1.1500000000000001 1.3000000000000003 1.3000000000000003 1.3000000000000003 1.3000000000000003 1.3000000000000003 1.3000000000000003 1.3000000000000003 1.3000000000000003 1.3000000000000003 1.3000000000000003 1.3000000000000003 1.3000000000000003 1.3000000000000003 1.3000000000000003 1.3000000000000003 1.3000000000000003 1.3000000000000003 1.3000000000000003 1.3000000000000003 1.3000000000000003 1.3000000000000003 1.3000000000000003 1.3000000000000003 1.1500000000000001 1.1500000000000001 1.1500000000000001 1.1500000000000001 1.1500000000000001 1.1500000000000001 1.1500000000000001 1.1500000000000001 1.1500000000000001 1.1500000000000001 </DataArray>
</PointData>
<CellData/>
</Piece>
</UnstructuredGrid>
</VTKFile>
