<?xml version="1.0" ?>
<VTKFile byte_order="LittleEndian" type="UnstructuredGrid" version="0.1">
<UnstructuredGrid>
<Piece NumberOfCells="0" NumberOfPoints="124">
<Points>
<DataArray NumberOfComponents="3" format="ascii" type="Float32">1.3114651949613798 5.7782057606103212 2 7.6715909692068056 1.1500000000000001 2 4.7090632886031063 6.1200821335696611 2 9.1574135813995206 6.0388559922908183 2 12.141059993581898 5.6211602896523525 2 15.4331857427629 7.8677884098599833 2 16.665245821220545 1.9763294106293978 2 23.564271638251867 4.4433814694936267 2 26.337551032218546 1 2 27.94528013992905 7.3215455337439037 2 29.969724372510932 2.0924511716243148 2 33.081126900067225 4.6994343912461503 2 39.3434031395823 4.9118536379425803 2 40.959749885121646 3.2332297453516081 2 45.202354348354525 2.9893669700008831 2 47.929340094831822 4.4233968350402835 2 51.718329839237001 3.9257351706663726 2 53.46720190318031 5.1883063736041093 2 58.453432387849475 4.909824610575857 2 63.422330371355123 1.0609277743718175 2 62.976154261427538 7.0661212176986847 2 66.458454072379652 4.2200945209459046 2 69.753731225682145 1.1500000000000001 2 73.152051382936065 7.1097456174945952 2 74.075413841252896 5.2511279480424928 2 77.713338053586867 7.0903842855443768 2 88.597566685882143 4.0470346382177267 2 90.827617372342985 3.3002287763943503 2 94.309646486054234 4.0664363739052227 2 94.960995018701325 5.9893506489621418 2 96.568356821717416 1.1500000000000001 2 1.1500000000000001 3.4250719637810367 2 3.2600951757409433 2.0651503706344814 2 7.0329468287359038 6.0729369271987128 2 14.699677073108615 1.1500000000000001 2 14.614585623958151 5.706860700775275 2 25.11950505874486 6.1549425223168193 2 29.451868275375741 5.500453444008838 2 40.08214710139508 1.1500000000000001 2 40.830933464988405 6.4649086060816989 2 46.673414667028219 6.6039272513273817 2 55.766005049968527 5.142202109374618 2 56.960415301789951 3.1957460880569704 2 64.456972388154384 3.0738512606243149 2 67.152621695201418 6.9339728682591426 2 70.529938902872544 3.8126802641124669 2 72.332916303244104 9.2995158946904137 2 74.66074639274882 9.4973103493876891 2 89.694296271967659 9.1599585954887637 2 91.996060498393788 9.0322576742119338 2 96.223274974742651 3.3969174090373495 2 98.85 6.930028328178329 2 10.378158916996091 1 2 19.130281402705847 4.5531532085481805 2 27.625726372407751 4.323381613334857 2 32.788561523687584 2.7514212452201954 2 36.773612524525795 6.2406692377057045 2 36.395093186321496 4.0301861470556881 2 48.101535115029222 2.3245867975401802 2 59.757618212125507 2.3776791001390891 2 73.397278159543504 1 2 91.869170121878142 1 2 3.2494938466789107 4.4487013255211298 2 7.521372732499386 3.8179142258123888 2 5.2241276151083191 3.4515971786928885 2 12.13265985432154 3.3382305373886565 2 17.191214634163298 6.3434160046007477 2 24.544217426967172 2.1907381159504031 2 30.521033986740701 7.5501933508634043 2 42.203342161986484 1.2211800543472724 2 44.801293108572281 5.2585775601153273 2 48.976382152024108 6.4641421968875461 2 54.584314550811321 3.1648968922026728 2 60.682332460973704 4.3193456150806959 2 62.923503589686639 4.7652339777329074 2 68.753192537168331 5.2517004335579243 2 68.345692916630796 3.0112262915847205 2 71.114989764480924 5.938645655564434 2 75.380905367338215 7.3623517031883354 2 86.397489171197748 3.4719061560817264 2 90.729572572869088 6.0496110155405516 2 96.394519757377481 7.8245088234347886 2 98.85 1.1500000000000001 2 1.1500000000000001 1.1500000000000001 2 5.3727382242721395 1.1500000000000001 2 7.0683901651489807 8.3613901855831614 2 14.451971578043787 3.4460655774853137 2 16.633696704634819 4.0972167639667783 2 25.918489114947803 8.307259066001361 2 31.034824135176791 3.9952450205539902 2 37.668351913022725 1.15228851531858 2 42.540145776677136 4.9226495375642889 2 44.234256850384654 7.4851605759735262 2 55.075713918577073 7.3392769848984099 2 55.836568909922534 1.1500000000000001 2 65.029387050411401 6.0382159146588705 2 67.835265525961262 9.1425498553811249 2 69.397672230570649 7.4911921247343161 2 70.101853057136566 9.6647878118777673 2 75.016061232180803 11.782583639779235 2 88.755382132337871 11.487991253117208 2 92.836621609076488 6.9134508926309497 2 97.144522783105757 5.3916738914759978 2 98.849999999999994 3.4500000919773681 2 10.308220250269267 4.3814272357125876 2 18.420391307944357 1 2 28.322265997673359 1 2 31.640526077593922 1 2 34.859402178897469 5.5541437192604217 2 38.236827097881999 3.2507632984207966 2 49.976719686541486 3.0196179029372043 2 62.269654834077841 2.6910176708381734 2 72.687819613636691 3.7941765033507338 2 92.356186718856378 4.7833900177480029 2 9.2847873717501486 2.6887769273711095 2 19.585252856615774 2.6003168410666322 2 25.693686364963533 4.0222361631819625 2 33.635804728450722 1 2 36.420537061046261 8.2042030639910024 2 34.800785091264423 2.8258791918121564 2 49.626720966640889 1 2 61.204979330327795 1 2 71.732995198672469 1.9969297860726016 2 92.793614068208015 2.6395793154975826 2 </DataArray>
</Points>
<Cells>
<DataArray Name="connectivity" format="ascii" type="Int32">0</DataArray>
<DataArray Name="offsets" format="ascii" type="Int32">0</DataArray>
<DataArray Name="types" format="ascii" type="UInt8">1</DataArray>
</Cells>
<PointData>
<DataArray Name="Points" NumberOfComponents="3" format="ascii" type="Float32">1.3114651949613798 5.7782057606103212 2 7.6715909692068056 1.1500000000000001 2 4.7090632886031063 6.1200821335696611 2 9.1574135813995206 6.0388559922908183 2 12.141059993581898 5.6211602896523525 2 15.4331857427629 7.8677884098599833 2 16.665245821220545 1.9763294106293978 2 23.564271638251867 4.4433814694936267 2 26.337551032218546 1 2 27.94528013992905 7.3215455337439037 2 29.969724372510932 2.0924511716243148 2 33.081126900067225 4.6994343912461503 2 39.3434031395823 4.9118536379425803 2 40.959749885121646 3.2332297453516081 2 45.202354348354525 2.9893669700008831 2 47.929340094831822 4.4233968350402835 2 51.718329839237001 3.9257351706663726 2 53.46720190318031 5.1883063736041093 2 58.453432387849475 4.909824610575857 2 63.422330371355123 1.0609277743718175 2 62.976154261427538 7.0661212176986847 2 66.458454072379652 4.2200945209459046 2 69.753731225682145 1.1500000000000001 2 73.152051382936065 7.1097456174945952 2 74.075413841252896 5.2511279480424928 2 77.713338053586867 7.0903842855443768 2 88.597566685882143 4.0470346382177267 2 90.827617372342985 3.3002287763943503 2 94.309646486054234 4.0664363739052227 2 94.960995018701325 5.9893506489621418 2 96.568356821717416 1.1500000000000001 2 1.1500000000000001 3.4250719637810367 2 3.2600951757409433 2.0651503706344814 2 7.0329468287359038 6.0729369271987128 2 14.699677073108615 1.1500000000000001 2 14.614585623958151 5.706860700775275 2 25.11950505874486 6.1549425223168193 2 29.451868275375741 5.500453444008838 2 40.08214710139508 1.1500000000000001 2 40.830933464988405 6.4649086060816989 2 46.673414667028219 6.6039272513273817 2 55.766005049968527 5.142202109374618 2 56.960415301789951 3.1957460880569704 2 64.456972388154384 3.0738512606243149 2 67.152621695201418 6.9339728682591426 2 70.529938902872544 3.8126802641124669 2 72.332916303244104 9.2995158946904137 2 74.66074639274882 9.4973103493876891 2 89.694296271967659 9.1599585954887637 2 91.996060498393788 9.0322576742119338 2 96.223274974742651 3.3969174090373495 2 98.85 6.930028328178329 2 10.378158916996091 1 2 19.130281402705847 4.5531532085481805 2 27.625726372407751 4.323381613334857 2 32.788561523687584 2.7514212452201954 2 36.773612524525795 6.2406692377057045 2 36.395093186321496 4.0301861470556881 2 48.101535115029222 2.3245867975401802 2 59.757618212125507 2.3776791001390891 2 73.397278159543504 1 2 91.869170121878142 1 2 3.2494938466789107 4.4487013255211298 2 7.521372732499386 3.8179142258123888 2 5.2241276151083191 3.4515971786928885 2 12.13265985432154 3.3382305373886565 2 17.191214634163298 6.3434160046007477 2 24.544217426967172 2.1907381159504031 2 30.521033986740701 7.5501933508634043 2 42.203342161986484 1.2211800543472724 2 44.801293108572281 5.2585775601153273 2 48.976382152024108 6.4641421968875461 2 54.584314550811321 3.1648968922026728 2 60.682332460973704 4.3193456150806959 2 62.923503589686639 4.7652339777329074 2 68.753192537168331 5.2517004335579243 2 68.345692916630796 3.0112262915847205 2 71.114989764480924 5.938645655564434 2 75.380905367338215 7.3623517031883354 2 86.397489171197748 3.4719061560817264 2 90.729572572869088 6.0496110155405516 2 96.394519757377481 7.8245088234347886 2 98.85 1.1500000000000001 2 1.1500000000000001 1.1500000000000001 2 5.3727382242721395 1.1500000000000001 2 7.0683901651489807 8.3613901855831614 2 14.451971578043787 3.4460655774853137 2 16.633696704634819 4.0972167639667783 2 25.918489114947803 8.307259066001361 2 31.034824135176791 3.9952450205539902 2 37.668351913022725 1.15228851531858 2 42.540145776677136 4.9226495375642889 2 44.234256850384654 7.4851605759735262 2 55.075713918577073 7.3392769848984099 2 55.836568909922534 1.1500000000000001 2 65.029387050411401 6.0382159146588705 2 67.835265525961262 9.1425498553811249 2 69.397672230570649 7.4911921247343161 2 70.101853057136566 9.6647878118777673 2 75.016061232180803 11.782583639779235 2 88.755382132337871 11.487991253117208 2 92.836621609076488 6.9134508926309497 2 97.144522783105757 5.3916738914759978 2 98.849999999999994 3.4500000919773681 2 10.308220250269267 4.3814272357125876 2 18.420391307944357 1 2 28.322265997673359 1 2 31.640526077593922 1 2 34.859402178897469 5.5541437192604217 2 38.236827097881999 3.2507632984207966 2 49.976719686541486 3.0196179029372043 2 62.269654834077841 2.6910176708381734 2 72.687819613636691 3.7941765033507338 2 92.356186718856378 4.7833900177480029 2 9.2847873717501486 2.6887769273711095 2 19.585252856615774 2.6003168410666322 2 25.693686364963533 4.0222361631819625 2 33.635804728450722 1 2 36.420537061046261 8.2042030639910024 2 34.800785091264423 2.8258791918121564 2 49.626720966640889 1 2 61.204979330327795 1 2 71.732995198672469 1.9969297860726016 2 92.793614068208015 2.6395793154975826 2 </DataArray>
<DataArray Name="forces" NumberOfComponents="3" format="ascii" type="Float32">-0.0060337991807139814 0.00438506858155642 0.0 0.00012986950420890153 0.0 0.0 -0.016110709623178454 0.00040897009110554984 0.0 -0.0035335195779002725 0.010312285901605734 0.0 0.0 0.0 0.0 0.0018548729171374181 0.0048964643314803533 0.0 -0.0032230298126267268 0.011913729978167732 0.0 -0.010807312646052752 0.00058592563697775738 0.0 0.0012191986471882573 -0.0063258532066929581 0.0 -0.02115485210270434 0.027693259616982508 0.0 -0.0037231728321760992 -0.010367859920985614 0.0 -0.0023045324307312699 0.0047519567204947748 0.0 -0.0001588343145568471 3.8965693487010835e-05 0.0 -0.005010916694948647 -0.005362024701522557 0.0 0.00063746573027449076 -0.0036468546243166042 0.0 -0.0060316384740718874 0.011495439997354123 0.0 -0.0040644760808371348 -0.0034862133216772744 0.0 0.002286529478977832 0.005039542795676903 0.0 -0.0049546660157060995 0.0013431982753287055 0.0 -0.0053316549173426687 -9.9083693137834753e-05 0.0 0.00014770202735412227 0.006566184032346053 0.0 0.0066568923380323592 -0.0018537842597397434 0.0 -0.00074623743976025281 -0.013692415922201849 0.0 0.034692728217458842 -0.0027988543486151575 0.0 -0.017522278816919701 0.027005125509479044 0.0 0.0077745375926131692 -0.02738363849393537 0.0 -0.023787386177767569 0.0029736577333649306 0.0 0.028328870273155806 -0.0095854704721545503 0.0 0.059786923060328151 0.040539290309277387 0.0 0.00018398470141233088 -0.013631343423523304 0.0 0.0033997556129473812 -0.08949602928217601 0.0 -0.042525971949644026 -0.0079559055678131985 0.0 0.0 0.0 0.0 0.010519970740829694 0.007477685290384113 0.0 0.0058326201709999687 -0.021977686558504444 0.0 -0.0018548729171374181 -0.0048964643314803533 0.0 0.002773528826259395 0.0030867242627770522 0.0 0.026559834963220817 -0.018529791980171337 0.0 0.062678812585436575 -0.00032694681314249133 0.0 -0.00063641883573260674 0.0017542261111668659 0.0 0.0038777687896285901 0.0027970426636888261 0.0 0.004729080767622084 -0.00042056380886451074 0.0 0.0074379065113180497 0.014190874307169308 0.0 -0.0053883396095077661 0.0038728003606221953 0.0 -0.0054921361994700289 0.0057224619742581462 0.0 0.0110390998093336 0.032389167401574936 0.0 -0.02411745803362466 0.016711222042077294 0.0 0.015255305929082816 -0.0072820287046821341 0.0 -0.0021287692603049573 0.0059290589814571968 0.0 0.0046624915697320189 0.0015619696755610681 0.0 -0.006051550859844379 0.040780059144096666 0.0 0.040207650990295378 0.035554175842142904 0.0 0.0080508460546289094 -0.024137384956327716 0.0 -0.0018540582543282625 0.0072229401386582496 0.0 -0.01254786514999979 -0.010866181614089847 0.0 0.0079704549035156981 0.01886120802734827 0.0 0.01791147144763252 0.0063987628560620916 0.0 -0.00035532723548016825 0.00024410948058402706 0.0 -0.0062586617503759163 0.027133938692174706 0.0 0.00054589696328634623 0.00083836874679277295 0.0 -0.0090916259994815746 -0.0089750620372460906 0.0 0.03143555315334122 -0.039985414708966792 0.0 0.048559771130358004 0.016329322849270869 0.0 0.013860556074361284 -0.0026471496682915316 0.0 -0.017749119957636436 0.014593198469175388 0.0 -0.012429977371219612 0.020448705358539349 0.0 0.001767266455680123 0.0071228301919665912 0.0 -0.0091057547932335697 0.0010431818755479057 0.0 0.0054611285914849695 0.009947000960704994 0.0 -0.049566995034877076 0.0058579516765875335 0.0 -0.0030669081533618459 0.0010667208329688735 0.0 0.0043896003693835077 0.0087060161022167702 0.0 0.0 0.0 0.0 0.004186267387061242 0.0078676860994334082 0.0 -0.00055473050227075171 0.001313197567908662 0.0 0.0033042519092772856 -0.012973169441335189 0.0 -0.024078602154520578 0.017925916420656413 0.0 -0.016601359223043066 -0.021641607244742796 0.0 -0.013635261612158991 0.02134048972645031 0.0 0.0 0.0 0.0 0.020923004243679526 -0.012657472152326668 0.0 0.014597062558317523 0.018470807472905217 0.0 0.013156471263659153 0.0 0.0 0.0 -0.012758485863014091 0.0 0.00079499049994207795 -0.017530949076699193 0.0 1.9821770611476495e-05 0.00088460206023519927 0.0 0.0094290892835427395 0.01833750245181642 0.0 -0.0017753167454538023 -0.0066103885250026828 0.0 -0.0025824885632800862 0.0012893615764789804 0.0 -0.01403169040244881 0.036499275415685775 0.0 -0.056791393204752925 -0.0018243024984568549 0.0 0.0048018494176666378 0.0040189129408961556 0.0 0.0 0.0 0.0 -0.00010714554953561587 0.00034453599865177437 0.0 -0.034108912474338997 -0.013250758101697985 0.0 -0.0046711786667668247 0.0059761907701216897 0.0 0.0 0.0 0.0 -0.0083079312684871294 0.016317637012149902 0.0 -0.0025742760173258577 0.00044362194377461499 0.0 0.0016876574734672077 0.010135911309779227 0.0 0.0 0.0 0.0 -0.017203418997180725 0.0058101693714837019 0.0 -0.014835206708369054 0.0026517163834941584 0.0 0.0 0.0 0.0 0.0064438282356893599 -0.0069752455990195836 0.0 0.0086932937091153926 -0.015532232612102865 0.0 -0.0033886592490292352 -0.0078184360440620142 0.0 0.0033093382461771969 -0.0022094424584487423 0.0 -0.014608532209257738 -0.0048330004693867721 0.0 0.00065907048619886686 0.0020626941941982819 0.0 0.015797228051210054 0.0058875820347135833 0.0 0.00086612786843042616 0.001369422698732902 0.0 -0.0015226947645372297 -0.0015240372406808971 0.0 -0.032109517654443594 0.013418746926979745 0.0 -0.011659033308344797 0.018469097785736528 0.0 -0.0019103571055675865 -0.001263961694494475 0.0 0.01100157996131132 0.0064812001634347253 0.0 -0.026540927134764258 -0.050050019832771957 0.0 -4.9032739360039239e-06 2.970955037667728e-05 0.0 -0.0022445114542519453 0.0047471742554782079 0.0 0.021881461321280635 -0.025939260741045179 0.0 0.0031731130418372827 -0.0052213137384578955 0.0 0.017307436256325678 -0.0098394019453655612 0.0 -0.032754617866851091 -0.015925808230506898 0.0 </DataArray>
<DataArray Name="radii" format="ascii" type="Float32">1.1500000000000001 1.1500000000000001 1.1500000000000001 1 1.1500000000000001 1.1500000000000001 1 1.1500000000000001 1 1.1500000000000001 1 1 1 1.1500000000000001 1.1500000000000001 1.1500000000000001 1 1.1500000000000001 1.1500000000000001 1 1.1500000000000001 1.1500000000000001 1.1500000000000001 1.1500000000000001 1 1.1500000000000001 1.1500000000000001 1.1500000000000001 1 1.1500000000000001 1.1500000000000001 1.1500000000000001 1.1500000000000001 1.1500000000000001 1.1500000000000001 1.1500000000000001 1.1500000000000001 1.1500000000000001 1.1500000000000001 1.1500000000000001 1.1500000000000001 1.1500000000000001 1.1500000000000001 1.1500000000000001 1.1500000000000001 1.1500000000000001 1.1500000000000001 1.1500000000000001 1.1500000000000001 1.1500000000000001 1.1500000000000001 1.1500000000000001 1 1 1 1 1 1 1 1 1 1 1.1500000000000001 1.1500000000000001 1.1500000000000001 1.1500000000000001 1.1500000000000001 1.1500000000000001 1.1500000000000001 1.1500000000000001 1.1500000000000001 1.1500000000000001 1.1500000000000001 1.1500000000000001 1.1500000000000001 1.1500000000000001 1.1500000000000001 1.1500000000000001 1.1500000000000001 1.1500000000000001 1.1500000000000001 1.1500000000000001 1.1500000000000001 1.1500000000000001 1.1500000000000001 1.1500000000000001 1.1500000000000001 1.1500000000000001 1.1500000000000001 1.1500000000000001 1.1500000000000001 1.1500000000000001 1.1500000000000001 1.1500000000000001 1.1500000000000001 1.1500000000000001 1.1500000000000001 1.1500000000000001 1.1500000000000001 1.1500000000000001 1.1500000000000001 1.1500000000000001 1.1500000000000001 1.1500000000000001 1 1 1 1 1 1 1 1 1 1 1 1 1 1 1 1 1 1 1 1 </DataArray>
</PointData>
<CellData/>
</Piece>
</UnstructuredGrid>
</VTKFile>
