<?xml version="1.0" ?>
<VTKFile byte_order="LittleEndian" type="UnstructuredGrid" version="0.1">
<UnstructuredGrid>
<Piece NumberOfCells="0" NumberOfPoints="31">
<Points>
<DataArray NumberOfComponents="3" format="ascii" type="Float32">1.2 1.2 2 3.5779542323974183 1.2 2 5.7238707072333144 2.0238519154773704 2 7.7742313366042399 1.03 2 12.123993630714413 1.2008743867501124 2 14.286246514253177 1.9977847900479593 2 16.325953072029137 1.03 2 25.977037142342525 2.0809958038436092 2 27.953932309229742 1.03 2 29.854051954023596 2.1246359638018535 2 31.838568226948254 1.03 2 33.749620626329246 1.1839341847820333 2 37.700897682248197 1.03 2 40.003440317056224 1.3907455098528492 2 42.158438056103982 2.0639183231512015 2 48.179733767007932 2.2393186671483503 2 50.026621159716058 1.03 2 53.846437716582408 2.2707286494035084 2 57.896435310498866 2.0948087274691747 2 62.092771441673925 1.03 2 66.114363213831538 2.3824481463294394 2 69.72376999244922 2.1026877265842061 2 71.944719568745754 1.2 2 74.198045906536123 2.0235505731424084 2 76.192023048419657 1.03 2 78.046676459720516 2.2657314949878238 2 86.132841495997639 2.1192212046328245 2 90.011223005546 1.9263790634001523 2 92.040273944069639 1.03 2 96.423914441328449 1.3202585203766 2 98.8 1.2 2 </DataArray>
</Points>
<Cells>
<DataArray Name="connectivity" format="ascii" type="Int32">0</DataArray>
<DataArray Name="offsets" format="ascii" type="Int32">0</DataArray>
<DataArray Name="types" format="ascii" type="UInt8">1</DataArray>
</Cells>
<PointData>
<DataArray Name="Points" NumberOfComponents="3" format="ascii" type="Float32">1.2 1.2 2 3.5779542323974183 1.2 2 5.7238707072333144 2.0238519154773704 2 7.7742313366042399 1.03 2 12.123993630714413 1.2008743867501124 2 14.286246514253177 1.9977847900479593 2 16.325953072029137 1.03 2 25.977037142342525 2.0809958038436092 2 27.953932309229742 1.03 2 29.854051954023596 2.1246359638018535 2 31.838568226948254 1.03 2 33.749620626329246 1.1839341847820333 2 37.700897682248197 1.03 2 40.003440317056224 1.3907455098528492 2 42.158438056103982 2.0639183231512015 2 48.179733767007932 2.2393186671483503 2 50.026621159716058 1.03 2 53.846437716582408 2.2707286494035084 2 57.896435310498866 2.0948087274691747 2 62.092771441673925 1.03 2 66.114363213831538 2.3824481463294394 2 69.72376999244922 2.1026877265842061 2 71.944719568745754 1.2 2 74.198045906536123 2.0235505731424084 2 76.192023048419657 1.03 2 78.046676459720516 2.2657314949878238 2 86.132841495997639 2.1192212046328245 2 90.011223005546 1.9263790634001523 2 92.040273944069639 1.03 2 96.423914441328449 1.3202585203766 2 98.8 1.2 2 </DataArray>
<DataArray Name="forces" NumberOfComponents="3" format="ascii" type="Float32">-0.070948164125753888 0.0 0.0 0.046402566087822644 -0.0085221958371727632 0.0 -0.045421958354070452 0.042883710979052164 0.0 0.067196650350173193 -0.034456387519099817 0.0 0.065030099103348976 0.00082968917360080668 0.0 -0.031026047899571196 0.020405594160446249 0.0 0.032321798814881154 -0.020355263374670737 0.0 -0.012597295675446381 0.010912521926916439 0.0 0.011205862827222803 -0.011628189653193115 0.0 -0.037843952797893501 0.027017856659146511 0.0 0.040274446089290122 -0.024350258316853564 0.0 -0.09355758281846166 0.0089339539819251867 0.0 -0.093919561563685208 -0.015825356586743774 0.0 0.094888122846565351 0.015174171448496193 0.0 -0.047402654087472788 0.028180765661677914 0.0 0.021964450845908815 0.017136644131328552 0.0 -0.0091472198037395175 -0.0022836946444626904 0.0 -0.0010808841709419132 0.0049383836288006376 0.0 0.0055439539953504313 0.0053710345935486375 0.0 0.015564628941095945 -0.00054471852638380777 0.0 0.007549978984930282 0.0070186272358022713 0.0 0.00052279457572261415 0.0023430006097945066 0.0 -0.00081215342400782356 -0.0018930687735331307 0.0 0.00058843368866120724 0.0021947983228543799 0.0 -0.00011668842752279732 -0.0027459385236369214 0.0 -0.00063771123842370917 0.0033949822431229666 0.0 -0.00012844390213383097 0.0049755296927940689 0.0 -0.0038405168367710565 0.007837248669187738 0.0 -0.0073817186079491327 -0.0052740534818018214 0.0 -0.0031048587770444828 0.0032203811011699418 0.0 0.024280998449888184 -0.0011958758810472149 0.0 </DataArray>
<DataArray Name="radii" format="ascii" type="Float32">1.2 1.2 1.2 1.03 1.2 1.2 1.03 1.2 1.03 1.2 1.03 1.03 1.03 1.2 1.2 1.2 1.03 1.2 1.2 1.03 1.2 1.2 1.2 1.2 1.03 1.2 1.2 1.2 1.03 1.2 1.2 </DataArray>
</PointData>
<CellData/>
</Piece>
</UnstructuredGrid>
</VTKFile>
