<?xml version="1.0" ?>
<VTKFile byte_order="LittleEndian" type="UnstructuredGrid" version="0.1">
<UnstructuredGrid>
<Piece NumberOfCells="0" NumberOfPoints="124">
<Points>
<DataArray NumberOfComponents="3" format="ascii" type="Float32">1.1800000000000002 5.9052554085208779 2 7.7803520683644249 1.1800000000000002 2 4.6833851550129575 6.5396502387177264 2 9.2256318461228926 6.3432443758471626 2 12.21155580924839 5.7289050428203563 2 15.465775703357053 8.0644359918431174 2 16.765987103670724 2.0670632828192845 2 23.541976957292377 4.5851251203236911 2 26.184306758691449 1.03 2 27.854325864354895 7.636430850188213 2 29.883168689466142 2.2572361408809036 2 33.068284565257272 4.9346491435197075 2 39.391977633792351 5.0474751369212179 2 40.891057935761715 3.3670025565511739 2 45.240006181448429 3.0238764795357738 2 47.810241254520292 4.6783691988643996 2 51.893101127269013 3.938344725202318 2 53.532146164277648 5.3956541577700845 2 58.373664232614431 5.1710218626638129 2 63.366843645566007 1.0300640672791825 2 62.776379491346567 7.2977826731987498 2 66.351090895741237 4.4174231584730359 2 69.751231103382878 1.1800000000000002 2 73.001244950725109 7.3760194185652823 2 74.066273049347686 5.4317250545750948 2 77.625721771752566 8.0139094600839176 2 88.767390154503715 4.0001715766939814 2 90.920111421888535 2.9978325119388591 2 94.439868882002429 4.3345311469568752 2 95.01758704863785 6.4079973814280358 2 96.478744932758886 1.1800000000000002 2 1.1800000000000002 3.5299685344663909 2 3.303637624073533 2.2086378457370799 2 7.0211295672407772 6.2544749511564879 2 14.755962676147242 1.1800000000000002 2 14.568961231651667 5.881098900857876 2 25.190164956983566 6.2605483367386645 2 29.283708398713973 5.7496194431433461 2 40.04640267976783 1.1800000000000002 2 40.872367554361908 6.6895482299924263 2 46.765961927445794 6.7997888485799782 2 55.886280211482024 5.2193360008572744 2 57.093259035426712 3.1962912466079687 2 64.413588939702905 3.0908432134552282 2 67.104899423363179 6.9974002497009824 2 70.45194502576112 3.7392281036069819 2 71.941266468856213 9.4954462253488838 2 74.310090844757681 9.6269083687003842 2 89.971358105595641 9.2841021874431302 2 92.32408951362379 9.262301284172759 2 96.4683435973173 3.5110155214981891 2 98.82 7.4656844327763592 2 10.381204591183071 1.03 2 19.037365815457985 4.7979524121829504 2 27.75390331680056 4.1651888097567529 2 32.786426945908303 2.8815280816229798 2 36.956338766890575 6.257896071963799 2 36.426052067672416 4.1792181382731739 2 48.07843513894435 2.5225738517146086 2 59.752927881732184 2.4641140792653333 2 73.646527733841594 1.03 2 92.100710963805554 1.03 2 3.2162785611378211 4.7109720028646862 2 7.5442632365850342 3.9575951136475176 2 5.2126214503697614 3.524475409419296 2 12.139271363162424 3.3524525957369051 2 17.282973473253065 6.5604753804236813 2 24.404179788398135 2.3273668502804581 2 30.612480899649974 7.7079476129497291 2 42.308384339214392 1.3715143761115005 2 44.895632635852117 5.3575189937785055 2 49.153542386771164 6.6248067954597252 2 54.581740846463852 3.1741447873213957 2 60.63724967172196 4.4920558156480954 2 62.92688853080881 4.9304716925131284 2 68.803380621077039 5.3420984569980625 2 68.276560309641695 3.0557891242294004 2 71.073608184607224 6.0173173495051406 2 75.364622441713166 7.3206977767592294 2 86.51030964988783 3.8817977498511733 2 90.556146655479452 6.0241203782946773 2 96.584578815635979 8.1771688132782412 2 98.82 1.1800000000000002 2 1.1800000000000002 1.1800000000000002 2 5.41889155229181 1.1800000000000002 2 7.0736761107235857 8.6018235257695235 2 14.49302528735574 3.5247520033824231 2 16.731195518541739 4.2682926837781476 2 25.702316572035556 8.5674550521523098 2 30.975713561575716 4.1740162885447765 2 37.670540379209619 1.1813848266452975 2 42.557477815501137 5.0373459162040026 2 44.199157364710189 7.6120505701331593 2 55.046365367698357 7.4271287485601354 2 55.857621860890092 1.1800000000000002 2 64.896932472785863 6.2467322855561118 2 67.458388373437899 9.3221082387036098 2 69.377512985215191 7.6568578123794522 2 69.705267806219311 10.056839188231827 2 74.889598514012519 11.928310848399617 2 88.973247827389528 11.64789443317124 2 92.735338580882299 6.9446230433149045 2 97.274853480339459 5.7038013179539204 2 98.819999999999993 3.5401536921476957 2 10.316928413485078 4.5976349665090313 2 18.535224659397539 1.03 2 28.243894579920987 1.03 2 31.531104635702725 1.03 2 34.98389677844429 5.6538747594275494 2 38.291545415447203 3.3109994120585982 2 50.03147997284858 3.0463028755241695 2 62.212793246022834 2.8335478008356776 2 72.678691489239114 3.901183677338671 2 92.373118535816332 4.7629865611371631 2 9.3625986224796698 2.7906578948552569 2 19.555338417131527 2.8089583541041141 2 25.692687590108296 4.1162273635661144 2 33.550162256138385 1.03 2 36.412791460016273 8.2448065784335487 2 34.819935480882386 2.8898281212136041 2 49.49326039263623 1.03 2 61.225703490170474 1.03 2 71.821774214522037 1.9620821641960124 2 93.034016005256191 2.840386560178934 2 </DataArray>
</Points>
<Cells>
<DataArray Name="connectivity" format="ascii" type="Int32">0</DataArray>
<DataArray Name="offsets" format="ascii" type="Int32">0</DataArray>
<DataArray Name="types" format="ascii" type="UInt8">1</DataArray>
</Cells>
<PointData>
<DataArray Name="Points" NumberOfComponents="3" format="ascii" type="Float32">1.1800000000000002 5.9052554085208779 2 7.7803520683644249 1.1800000000000002 2 4.6833851550129575 6.5396502387177264 2 9.2256318461228926 6.3432443758471626 2 12.21155580924839 5.7289050428203563 2 15.465775703357053 8.0644359918431174 2 16.765987103670724 2.0670632828192845 2 23.541976957292377 4.5851251203236911 2 26.184306758691449 1.03 2 27.854325864354895 7.636430850188213 2 29.883168689466142 2.2572361408809036 2 33.068284565257272 4.9346491435197075 2 39.391977633792351 5.0474751369212179 2 40.891057935761715 3.3670025565511739 2 45.240006181448429 3.0238764795357738 2 47.810241254520292 4.6783691988643996 2 51.893101127269013 3.938344725202318 2 53.532146164277648 5.3956541577700845 2 58.373664232614431 5.1710218626638129 2 63.366843645566007 1.0300640672791825 2 62.776379491346567 7.2977826731987498 2 66.351090895741237 4.4174231584730359 2 69.751231103382878 1.1800000000000002 2 73.001244950725109 7.3760194185652823 2 74.066273049347686 5.4317250545750948 2 77.625721771752566 8.0139094600839176 2 88.767390154503715 4.0001715766939814 2 90.920111421888535 2.9978325119388591 2 94.439868882002429 4.3345311469568752 2 95.01758704863785 6.4079973814280358 2 96.478744932758886 1.1800000000000002 2 1.1800000000000002 3.5299685344663909 2 3.303637624073533 2.2086378457370799 2 7.0211295672407772 6.2544749511564879 2 14.755962676147242 1.1800000000000002 2 14.568961231651667 5.881098900857876 2 25.190164956983566 6.2605483367386645 2 29.283708398713973 5.7496194431433461 2 40.04640267976783 1.1800000000000002 2 40.872367554361908 6.6895482299924263 2 46.765961927445794 6.7997888485799782 2 55.886280211482024 5.2193360008572744 2 57.093259035426712 3.1962912466079687 2 64.413588939702905 3.0908432134552282 2 67.104899423363179 6.9974002497009824 2 70.45194502576112 3.7392281036069819 2 71.941266468856213 9.4954462253488838 2 74.310090844757681 9.6269083687003842 2 89.971358105595641 9.2841021874431302 2 92.32408951362379 9.262301284172759 2 96.4683435973173 3.5110155214981891 2 98.82 7.4656844327763592 2 10.381204591183071 1.03 2 19.037365815457985 4.7979524121829504 2 27.75390331680056 4.1651888097567529 2 32.786426945908303 2.8815280816229798 2 36.956338766890575 6.257896071963799 2 36.426052067672416 4.1792181382731739 2 48.07843513894435 2.5225738517146086 2 59.752927881732184 2.4641140792653333 2 73.646527733841594 1.03 2 92.100710963805554 1.03 2 3.2162785611378211 4.7109720028646862 2 7.5442632365850342 3.9575951136475176 2 5.2126214503697614 3.524475409419296 2 12.139271363162424 3.3524525957369051 2 17.282973473253065 6.5604753804236813 2 24.404179788398135 2.3273668502804581 2 30.612480899649974 7.7079476129497291 2 42.308384339214392 1.3715143761115005 2 44.895632635852117 5.3575189937785055 2 49.153542386771164 6.6248067954597252 2 54.581740846463852 3.1741447873213957 2 60.63724967172196 4.4920558156480954 2 62.92688853080881 4.9304716925131284 2 68.803380621077039 5.3420984569980625 2 68.276560309641695 3.0557891242294004 2 71.073608184607224 6.0173173495051406 2 75.364622441713166 7.3206977767592294 2 86.51030964988783 3.8817977498511733 2 90.556146655479452 6.0241203782946773 2 96.584578815635979 8.1771688132782412 2 98.82 1.1800000000000002 2 1.1800000000000002 1.1800000000000002 2 5.41889155229181 1.1800000000000002 2 7.0736761107235857 8.6018235257695235 2 14.49302528735574 3.5247520033824231 2 16.731195518541739 4.2682926837781476 2 25.702316572035556 8.5674550521523098 2 30.975713561575716 4.1740162885447765 2 37.670540379209619 1.1813848266452975 2 42.557477815501137 5.0373459162040026 2 44.199157364710189 7.6120505701331593 2 55.046365367698357 7.4271287485601354 2 55.857621860890092 1.1800000000000002 2 64.896932472785863 6.2467322855561118 2 67.458388373437899 9.3221082387036098 2 69.377512985215191 7.6568578123794522 2 69.705267806219311 10.056839188231827 2 74.889598514012519 11.928310848399617 2 88.973247827389528 11.64789443317124 2 92.735338580882299 6.9446230433149045 2 97.274853480339459 5.7038013179539204 2 98.819999999999993 3.5401536921476957 2 10.316928413485078 4.5976349665090313 2 18.535224659397539 1.03 2 28.243894579920987 1.03 2 31.531104635702725 1.03 2 34.98389677844429 5.6538747594275494 2 38.291545415447203 3.3109994120585982 2 50.03147997284858 3.0463028755241695 2 62.212793246022834 2.8335478008356776 2 72.678691489239114 3.901183677338671 2 92.373118535816332 4.7629865611371631 2 9.3625986224796698 2.7906578948552569 2 19.555338417131527 2.8089583541041141 2 25.692687590108296 4.1162273635661144 2 33.550162256138385 1.03 2 36.412791460016273 8.2448065784335487 2 34.819935480882386 2.8898281212136041 2 49.49326039263623 1.03 2 61.225703490170474 1.03 2 71.821774214522037 1.9620821641960124 2 93.034016005256191 2.840386560178934 2 </DataArray>
<DataArray Name="forces" NumberOfComponents="3" format="ascii" type="Float32">-0.0045666842863219884 0.0027069061045628946 0.0 0.00099831557930230019 0.0 0.0 -0.0017703074748417732 0.0081172831643722045 0.0 1.2081530978359963e-05 0.0054540648145173587 0.0 0.0048299714778151908 0.0028935872189887872 0.0 -0.00024540747210912008 0.0017090473924503717 0.0 0.004074748723985451 0.0035656397240540136 0.0 0.0038537623497441218 0.0032546005911207087 0.0 -0.0051679306014761105 -0.0029431487997878349 0.0 -0.0067593273361900895 0.013398752056177302 0.0 -0.005104027573813695 0.006130146941100552 0.0 0.0019122556235839608 0.011820586345529623 0.0 -1.0753350494799698e-05 0.00071131219668079727 0.0 -0.00084393914506293024 -9.13720653182141e-05 0.0 0.0015058129205545755 0.00013527304439727621 0.0 -0.0014855803222379028 0.0010528782877446442 0.0 0.010248489922711521 0.0031207172089382095 0.0 0.00098005169299861944 0.0041498488934705365 0.0 -0.0058716859976073897 0.0038656876095892051 0.0 -0.00077195874170659956 -2.5353213213077306e-05 0.0 -0.0058121149354881186 0.0029265906409274779 0.0 -0.0088320039136022196 0.0085416931526844792 0.0 -0.0017116990491626537 -0.0012848662688154308 0.0 -0.00071226576130850941 0.0011218300889573236 0.0 0.0029873671933568265 -0.0054545490550499207 0.0 0.0009683453604915869 0.014980207063223644 0.0 -0.012028967239844892 0.013300694293836027 0.0 0.018738029351234406 -0.020107416126592233 0.0 0.014654063186016308 0.020917381869826716 0.0 -0.0055837622716856002 0.0091350526311087758 0.0 -0.0029016439651319663 -0.035929262696711706 0.0 -0.017787155510273774 0.00033549970098799807 0.0 0.0073814005748848131 0.0025993455989937121 0.0 4.3201177475063815e-05 0.010008021871553719 0.0 0.0041382178095658367 -0.0085621928866416869 0.0 -0.00039748253349268492 0.00080071538247509849 0.0 0.0012769505985741362 -0.00014278271225829351 0.0 -0.0015949847798350132 -0.0021055362906871652 0.0 0.02117021403650677 -0.0037859140372877133 0.0 0.00093527313575690238 0.0023428374828517355 0.0 -0.0028771443875972962 0.0091916088337202287 0.0 0.0031187582281239248 0.00031436339855315355 0.0 0.0017629562850221842 0.0019224125572894204 0.0 0.0029572579987652741 -0.00054018602163367609 0.0 -0.0045190750687265861 0.0020991909228400773 0.0 -0.028525405132938914 0.0033172308839680862 0.0 -0.02638469856192217 -0.00014313578862252922 0.0 0.0057497730433778912 6.0682804501091449e-05 0.0 0.0062831926567003902 0.0039476186220259203 0.0 0.0062140429146167291 0.004446655646241594 0.0 0.0059749256618080726 0.004501294940348833 0.0 0.025046961572724142 0.011871742784108781 0.0 0.0016768357380307145 -0.036372868737346839 0.0 -0.001520736807628986 0.0053390921097316874 0.0 0.0020789437148656291 -0.002240604534197427 0.0 0.011774132505868503 -0.0037184205651735239 0.0 0.0020523237441483449 0.00061602721004903242 0.0 0.0015237058733426974 0.0006856682374002897 0.0 0.008534159213806583 0.015337577753828397 0.0 0.00023113056607914316 -0.0017299027906790081 0.0 0.00099599432203123983 -0.0023206676992030941 0.0 -0.0052938430965886948 -0.025814853293191362 0.0 0.0061612989161413459 0.0063819384257405368 0.0 0.0087722350546967122 0.0034416409276347183 0.0 -0.015079394038065177 -0.00058311300275249583 0.0 -0.00026261163125066312 0.00051004335289977424 0.0 0.0019352519960086783 0.0045583919095834183 0.0 -0.00091405560824805738 0.0036617399756372466 0.0 0.0015221437729864237 0.0022438049088269784 0.0 -0.01265482940764228 0.010076671544750736 0.0 0.00096408514964290174 0.00099500859979802453 0.0 0.0038573614880546237 0.0056053136354424996 0.0 0.0 0.0 0.0 0.0013475652057741757 0.0067591796203641443 0.0 -0.0083728682483240474 0.00203184631707134 0.0 0.0070354231079628755 -0.0069526194230915567 0.0 0.0046305053628123566 0.0096029106675689039 0.0 -0.0013800433424488233 -0.00095777879539654708 0.0 0.0044632118191393578 0.0011109953245314963 0.0 0.026139590494270313 0.014634210095967163 0.0 -0.0042973579732166903 -0.00010730368277285865 0.0 0.0041826692267903504 0.021239835083108342 0.0 0.023783202059861175 0.0 0.0 -0.012465392478247366 -0.016661948123045604 0.0 -0.00041777665353697293 -0.0075307169063649291 0.0 0.00016047280601027333 0.0072113834532407852 0.0 0.000595894473054912 0.0010603120243628445 0.0 -0.00082195206019560439 0.003471961030569749 0.0 -0.0048012090848880045 0.0041725423636734486 0.0 -0.010100758684965606 0.012665667995176644 0.0 -0.019273993796066254 -0.00086363190394906112 0.0 -0.00026076150779937805 0.0004404632486874299 0.0 -0.00032635021791046093 0.0010597716499818354 0.0 0.0 0.0 0.0 -0.0055350268911657091 -0.0033909274364260483 0.0 0.0048447301660318517 0.0071885563333721385 0.0 -0.014828615566914921 0.0045529845768880256 0.0 0.00070829029791196494 0.0022278845016466256 0.0 -0.0038081600225658603 0.010171107690513295 0.0 -0.0001042004141947226 1.3464570270318003e-05 0.0 0.0023558699810068812 0.0032841711191775869 0.0 -0.00079133826180109962 0.0040799613812036901 0.0 -0.00076814062379839884 0.0094950566189583429 0.0 0.0 0.0 0.0 0.0027352083174464895 0.0038168232753532398 0.0 0.0036127595166491238 -0.016978385680917123 0.0 -8.2091961338660868e-05 -0.0068840068588078354 0.0 -0.0047069530905053565 -0.007243258705341332 0.0 -0.0013076921884830972 0.0017518164744210873 0.0 0.0012722933678488793 0.00079131570405814155 0.0 -2.1270252566252951e-05 -0.0028831870832059722 0.0 -0.0033152896190470006 0.0016843447189141807 0.0 0.010932507568938696 0.011460586626233667 0.0 -0.00034113824466224614 -0.00057693580615139801 0.0 -0.0012465729921807616 0.0085598835332058691 0.0 -0.00091497252700336717 0.0049680239912080378 0.0 -0.0016329017271930228 0.0036755732618812616 0.0 -0.019927484275421035 -0.026388630079250949 0.0 -4.1052892630289338e-06 1.5113850138560641e-05 0.0 -0.0027748781713294339 0.0042781361229803083 0.0 -0.00085819955494433574 -0.00796284063297816 0.0 0.0014880666959931218 -0.0048835381176512782 0.0 0.0036303836189441659 -0.0021359613676020838 0.0 -0.011162844083145525 0.0068320576259541712 0.0 </DataArray>
<DataArray Name="radii" format="ascii" type="Float32">1.1800000000000002 1.1800000000000002 1.1800000000000002 1.03 1.1800000000000002 1.1800000000000002 1.03 1.1800000000000002 1.03 1.1800000000000002 1.03 1.03 1.03 1.1800000000000002 1.1800000000000002 1.1800000000000002 1.03 1.1800000000000002 1.1800000000000002 1.03 1.1800000000000002 1.1800000000000002 1.1800000000000002 1.1800000000000002 1.03 1.1800000000000002 1.1800000000000002 1.1800000000000002 1.03 1.1800000000000002 1.1800000000000002 1.1800000000000002 1.1800000000000002 1.1800000000000002 1.1800000000000002 1.1800000000000002 1.1800000000000002 1.1800000000000002 1.1800000000000002 1.1800000000000002 1.1800000000000002 1.1800000000000002 1.1800000000000002 1.1800000000000002 1.1800000000000002 1.1800000000000002 1.1800000000000002 1.1800000000000002 1.1800000000000002 1.1800000000000002 1.1800000000000002 1.1800000000000002 1.03 1.03 1.03 1.03 1.03 1.03 1.03 1.03 1.03 1.03 1.1800000000000002 1.1800000000000002 1.1800000000000002 1.1800000000000002 1.1800000000000002 1.1800000000000002 1.1800000000000002 1.1800000000000002 1.1800000000000002 1.1800000000000002 1.1800000000000002 1.1800000000000002 1.1800000000000002 1.1800000000000002 1.1800000000000002 1.1800000000000002 1.1800000000000002 1.1800000000000002 1.1800000000000002 1.1800000000000002 1.1800000000000002 1.1800000000000002 1.1800000000000002 1.1800000000000002 1.1800000000000002 1.1800000000000002 1.1800000000000002 1.1800000000000002 1.1800000000000002 1.1800000000000002 1.1800000000000002 1.1800000000000002 1.1800000000000002 1.1800000000000002 1.1800000000000002 1.1800000000000002 1.1800000000000002 1.1800000000000002 1.1800000000000002 1.1800000000000002 1.1800000000000002 1.1800000000000002 1.03 1.03 1.03 1.03 1.03 1.03 1.03 1.03 1.03 1.03 1.03 1.03 1.03 1.03 1.03 1.03 1.03 1.03 1.03 1.03 </DataArray>
</PointData>
<CellData/>
</Piece>
</UnstructuredGrid>
</VTKFile>
