<?xml version="1.0" ?>
<VTKFile byte_order="LittleEndian" type="UnstructuredGrid" version="0.1">
<UnstructuredGrid>
<Piece NumberOfCells="0" NumberOfPoints="52">
<Points>
<DataArray NumberOfComponents="3" format="ascii" type="Float32">12.490616581984954 1.1 2 21.076128182704306 5.414390403105279 2 20.680196466184007 1 2 21.770196847148799 2.9983461134393443 2 22.677469492407301 1 2 35.589739612307923 1 2 44.466347002972434 1 2 46.500487528730559 1.1 2 51.50633982533963 1 2 53.605481802007141 1.1039823167152198 2 58.142258712708148 1.1 2 65.488896775741139 1.1 2 67.58155693403387 1 2 81.311430913163804 1.1 2 84.533284374130687 2.6853648326644199 2 88.129424279734991 1 2 90.14564765637256 1 2 94.253191918118077 1.1 2 77.044739761929989 11.694261070897113 2 82.779469812044198 11.48994036238785 2 77.996690567152882 1.1 2 85.599189435076823 5.9601207783716301 2 78.499002698439952 10.130322110388811 2 78.425655541308387 4.0472516237649714 2 83.82409143101701 4.5990335803994871 2 80.767243074839456 10.44980918088601 2 75.677260651200243 1 2 86.751827920946653 12.164183764506278 2 82.576430667101249 6.3357805710590416 2 80.776633362150292 4.3337879806330522 2 83.402972866108868 1 2 79.250177429025641 12.090849663263091 2 74.64649477687864 3.4260419124078316 2 88.882892933681816 7.4122659208916346 2 79.809451626813569 8.5021841953876223 2 83.793704270921339 9.5472741003753594 2 87.740713063730652 9.7468074623242753 2 79.691555901150494 2.4000688527855552 2 86.111976787551825 1.1 2 82.821221973413813 13.68462392345671 2 76.764321666856389 2.8453393869645076 2 87.662580857667933 5.8219287168108185 2 76.399476409805018 9.7954173727473108 2 82.030953793438272 8.3059149378339239 2 84.665074903272583 12.584234801830544 2 82.545824393892744 2.9636881688020758 2 76.172496482988464 5.2960458035196973 2 80.532098546530264 6.3979388170054561 2 85.750661202957545 10.337477803712147 2 86.803085184033407 7.7472606969839877 2 78.09798342813869 5.9445382399378728 2 84.193072769870824 7.5083016780261556 2 </DataArray>
</Points>
<Cells>
<DataArray Name="connectivity" format="ascii" type="Int32">0</DataArray>
<DataArray Name="offsets" format="ascii" type="Int32">0</DataArray>
<DataArray Name="types" format="ascii" type="UInt8">1</DataArray>
</Cells>
<PointData>
<DataArray Name="Points" NumberOfComponents="3" format="ascii" type="Float32">12.490616581984954 1.1 2 21.076128182704306 5.414390403105279 2 20.680196466184007 1 2 21.770196847148799 2.9983461134393443 2 22.677469492407301 1 2 35.589739612307923 1 2 44.466347002972434 1 2 46.500487528730559 1.1 2 51.50633982533963 1 2 53.605481802007141 1.1039823167152198 2 58.142258712708148 1.1 2 65.488896775741139 1.1 2 67.58155693403387 1 2 81.311430913163804 1.1 2 84.533284374130687 2.6853648326644199 2 88.129424279734991 1 2 90.14564765637256 1 2 94.253191918118077 1.1 2 77.044739761929989 11.694261070897113 2 82.779469812044198 11.48994036238785 2 77.996690567152882 1.1 2 85.599189435076823 5.9601207783716301 2 78.499002698439952 10.130322110388811 2 78.425655541308387 4.0472516237649714 2 83.82409143101701 4.5990335803994871 2 80.767243074839456 10.44980918088601 2 75.677260651200243 1 2 86.751827920946653 12.164183764506278 2 82.576430667101249 6.3357805710590416 2 80.776633362150292 4.3337879806330522 2 83.402972866108868 1 2 79.250177429025641 12.090849663263091 2 74.64649477687864 3.4260419124078316 2 88.882892933681816 7.4122659208916346 2 79.809451626813569 8.5021841953876223 2 83.793704270921339 9.5472741003753594 2 87.740713063730652 9.7468074623242753 2 79.691555901150494 2.4000688527855552 2 86.111976787551825 1.1 2 82.821221973413813 13.68462392345671 2 76.764321666856389 2.8453393869645076 2 87.662580857667933 5.8219287168108185 2 76.399476409805018 9.7954173727473108 2 82.030953793438272 8.3059149378339239 2 84.665074903272583 12.584234801830544 2 82.545824393892744 2.9636881688020758 2 76.172496482988464 5.2960458035196973 2 80.532098546530264 6.3979388170054561 2 85.750661202957545 10.337477803712147 2 86.803085184033407 7.7472606969839877 2 78.09798342813869 5.9445382399378728 2 84.193072769870824 7.5083016780261556 2 </DataArray>
<DataArray Name="forces" NumberOfComponents="3" format="ascii" type="Float32">0.0014785321242468555 -0.0016285818205837672 0.0 0.000122889710167436 3.7764507849693342e-05 0.0 -0.0010292890669809651 0.0 0.0 0.0003443569627601898 0.0020553971009045027 0.0 -0.0020070209622807234 -0.010792676812778318 0.0 0.012433142896813985 -0.0094979528901616237 0.0 0.018158625673677171 -0.01170609122352206 0.0 -0.003317620179184938 -0.025036250162593827 0.0 -0.0054298943769577959 -0.00083410382615670283 0.0 0.0037338906270600169 0.00034939633302541212 0.0 0.0056918390669307905 -0.0070011620437295972 0.0 -0.0042430819166582355 -0.0087286991661427987 0.0 -0.001291646393902831 -0.028142544821054601 0.0 -0.0091911106372844567 -0.10866804905899874 0.0 -0.046140701685284363 0.028595313714872263 0.0 -0.010867107499367402 -0.0017780124578613095 0.0 0.02550107566098192 -0.00079272287911114157 0.0 0.015840655514766398 -0.034595711894884633 0.0 -0.0040085365595892925 0.026108028842358119 0.0 -0.0047457044422443721 0.0046975062361318109 0.0 -0.010462892128192802 -0.076097162138714702 0.0 0.0091984924293822753 0.012806443269104364 0.0 0.012970435215453553 0.0031206863487120637 0.0 -0.011351625829588874 0.015271552868188459 0.0 -0.0064702077533780877 -0.035022774646165766 0.0 0.0046113990418243343 0.010047294267316412 0.0 0.0036460893454378436 -5.3985974952577179e-05 0.0 0.0020530003481884079 0.0041206545818166856 0.0 -0.019705783140979413 0.021879754123288554 0.0 -0.0052113125342513012 0.026750335093389643 0.0 0.012678303042003056 -0.043638317328079053 0.0 0.0063218072597553861 0.016063587725853069 0.0 -0.030245784891001569 0.010090711210947477 0.0 0.0060546811882767268 0.0093334149862281668 0.0 -0.02113909248922264 0.034114138033286112 0.0 -0.0077949970428561246 0.0020946975728611834 0.0 0.0027111597671599557 0.010160899078842834 0.0 -0.0012555164573271917 -0.021761881980744011 0.0 0.014442672093410824 -0.050797810166705107 0.0 6.3935032217684375e-05 0.0042026387152345555 0.0 0.0068535999361631211 0.0050505572836234171 0.0 0.0007116127094732097 -0.0025764830477749707 0.0 -0.022329451489424338 0.018586407953752312 0.0 0.0092811349690277781 0.0078762113984216266 0.0 0.0 0.0 0.0 0.057592077592440137 0.02548632679641363 0.0 0.00049494888811583168 -0.0012274586932540159 0.0 0.0029280409431077445 -0.013885465880493643 0.0 0.011179081225817613 0.0071569247193301443 0.0 -0.00035021073483749825 -0.0035838884643896798 0.0 -0.00026676230268501099 0.015358746751628988 0.0 -0.0074149796925861797 0.008200352846862706 0.0 </DataArray>
<DataArray Name="radii" format="ascii" type="Float32">1.1 1.1 1 1.2000000000000002 1 1 1 1.1 1 1.1 1.1 1.1 1 1.1 1.1 1 1 1.1 1 1.1 1.1 1.1 1.1 1 1.1 1.1 1 1.1 1 1.1 1 1 1.1 1 1.1 1.1 1.1 1.1 1.1 1.1 1.1 1 1 1.1 1 1.1 1 1.1 1 1.1 1 1 </DataArray>
</PointData>
<CellData/>
</Piece>
</UnstructuredGrid>
</VTKFile>
