<?xml version="1.0" ?>
<VTKFile byte_order="LittleEndian" type="UnstructuredGrid" version="0.1">
<UnstructuredGrid>
<Piece NumberOfCells="0" NumberOfPoints="20">
<Points>
<DataArray NumberOfComponents="3" format="ascii" type="Float32">9.6489539001005102 1.1 2 18.605210669929562 2.4170316845718083 2 20.149649912509801 1 2 22.096264947364102 2.0213128842883603 2 24.048012225885277 1 2 35.487347972686152 1 2 44.1570572567705 1 2 46.25480833514338 1.1007395315346409 2 52.326296296811741 1 2 55.045937183702186 1.1 2 59.670971247883188 1.1 2 64.441423377035434 1.1 2 67.674904105028347 1 2 79.245569725614544 1.4000000000000004 2 82.918256485287898 1.4000000000000004 2 85.286763728845528 1 2 87.887968981660435 1 2 93.744753699767685 1.1 2 79.518614693009056 3.7864065629960311 2 81.90340849834763 4.0092452804031975 2 </DataArray>
</Points>
<Cells>
<DataArray Name="connectivity" format="ascii" type="Int32">0</DataArray>
<DataArray Name="offsets" format="ascii" type="Int32">0</DataArray>
<DataArray Name="types" format="ascii" type="UInt8">1</DataArray>
</Cells>
<PointData>
<DataArray Name="Points" NumberOfComponents="3" format="ascii" type="Float32">9.6489539001005102 1.1 2 18.605210669929562 2.4170316845718083 2 20.149649912509801 1 2 22.096264947364102 2.0213128842883603 2 24.048012225885277 1 2 35.487347972686152 1 2 44.1570572567705 1 2 46.25480833514338 1.1007395315346409 2 52.326296296811741 1 2 55.045937183702186 1.1 2 59.670971247883188 1.1 2 64.441423377035434 1.1 2 67.674904105028347 1 2 79.245569725614544 1.4000000000000004 2 82.918256485287898 1.4000000000000004 2 85.286763728845528 1 2 87.887968981660435 1 2 93.744753699767685 1.1 2 79.518614693009056 3.7864065629960311 2 81.90340849834763 4.0092452804031975 2 </DataArray>
<DataArray Name="forces" NumberOfComponents="3" format="ascii" type="Float32">-0.0041212088234146901 -0.010376545655689965 0.0 0.0091807627032716166 0.0054301084817819081 0.0 0.0004266203688271805 -0.00038694025828488296 0.0 -0.002135455915389735 0.0011189313442217055 0.0 0.002135455915389735 -0.0011189313442217055 0.0 -0.0097064858533235238 -0.058484733053304219 0.0 0.00025950220738363847 -0.0050875075759342974 0.0 0.002248564509992453 0.00010796576559018753 0.0 0.003148296342204239 -0.013416398584696568 0.0 0.00023917360703719793 -0.0070583868005336141 0.0 -0.012486928442397479 -0.001155129709364358 0.0 0.0047000582179771658 -0.032056552276475969 0.0 0.0 0.0 0.0 -0.00011906727578859803 -0.0010692002327718235 0.0 -0.0016279384210642011 -0.0012406372099045596 0.0 0.0019945860248844383 -0.00073495524865558671 0.0 0.0 0.0 0.0 0.0041086588803901153 -0.00034417873191916693 0.0 0.0060875017601690149 0.0018277866871225692 0.0 -0.00063252406487546414 0.0016231008979002385 0.0 </DataArray>
<DataArray Name="radii" format="ascii" type="Float32">1.1 1.1 1 1.2000000000000002 1 1 1 1.1 1 1.1 1.1 1.1 1 1.4000000000000004 1.4000000000000004 1 1 1.1 1 1.4000000000000004 </DataArray>
</PointData>
<CellData/>
</Piece>
</UnstructuredGrid>
</VTKFile>
