<?xml version="1.0" ?>
<VTKFile byte_order="LittleEndian" type="UnstructuredGrid" version="0.1">
<UnstructuredGrid>
<Piece NumberOfCells="0" NumberOfPoints="52">
<Points>
<DataArray NumberOfComponents="3" format="ascii" type="Float32">2.0767514284756015 3.0344076985331347 2 5.3983676385801411 1.5826816189305022 2 6.1691207979194793 3.5920209014114102 2 7.8058867774726339 1.4021616667279502 2 11.538033785558564 2.8990740885878381 2 15.199288528205715 4.6100604411965378 2 16.613513094202698 1.3900000000000003 2 25.349243124123458 2.5093264719876132 2 27.562279410830804 1.3900000000000003 2 29.115130830921611 5.0238308986821423 2 31.518649993895338 1.3900000000000003 2 33.867360265239185 2.8772673626647953 2 37.480910635246602 2.0754370588742401 2 41.772717779466738 1.9195933541911812 2 43.650360367104419 3.0272449430922252 2 48.149800703560885 2.9116866469355491 2 50.108126606074514 1.3900065292662438 2 53.522491608929407 2.8033787065455757 2 58.652800008971326 3.3119981521991453 2 62.035560878157149 1.395713253128454 2 65.085398680794356 3.2124964027544274 2 69.607667236537395 2.349412910471917 2 71.387071715164808 1.09 2 74.548216059881369 3.3468001419380982 2 76.071816157939566 1.3900000000000003 2 77.361163371523091 3.5103725988233441 2 86.607286745234987 2.6333904789386571 2 89.367519081017932 2.6625558969504466 2 91.496150592086792 1.3900262909231318 2 95.133541858618756 2.9551062046280809 2 98.91 1.09 2 1.09 1.09 2 3.170001696892728 1.09 2 6.8401237163667989 5.6875202678044259 2 12.830955505708245 1.09 2 14.431989545366378 2.5695571428305204 2 26.357025357250826 4.4424172671526128 2 29.540463913254211 2.8857220536206847 2 39.756736128067786 1.09 2 42.107789692787996 4.5807540685776926 2 46.325907087945247 4.1057992957951912 2 55.209490679692536 4.1841382625754022 2 56.972575467978125 1.9227188251433214 2 67.26532548015247 3.1946289530885124 2 69.055222382615781 4.4582541753807492 2 72.392152696402789 3.0244877149242417 2 73.24554062756529 5.0948609116122663 2 75.846917491574359 5.09773820079283 2 86.158460237608878 4.7670538433889593 2 88.330509443668745 4.5801103457781904 2 96.772321308816444 1.5174697547158913 2 98.909999999999997 3.2705684639731625 2 </DataArray>
</Points>
<Cells>
<DataArray Name="connectivity" format="ascii" type="Int32">0</DataArray>
<DataArray Name="offsets" format="ascii" type="Int32">0</DataArray>
<DataArray Name="types" format="ascii" type="UInt8">1</DataArray>
</Cells>
<PointData>
<DataArray Name="Points" NumberOfComponents="3" format="ascii" type="Float32">2.0767514284756015 3.0344076985331347 2 5.3983676385801411 1.5826816189305022 2 6.1691207979194793 3.5920209014114102 2 7.8058867774726339 1.4021616667279502 2 11.538033785558564 2.8990740885878381 2 15.199288528205715 4.6100604411965378 2 16.613513094202698 1.3900000000000003 2 25.349243124123458 2.5093264719876132 2 27.562279410830804 1.3900000000000003 2 29.115130830921611 5.0238308986821423 2 31.518649993895338 1.3900000000000003 2 33.867360265239185 2.8772673626647953 2 37.480910635246602 2.0754370588742401 2 41.772717779466738 1.9195933541911812 2 43.650360367104419 3.0272449430922252 2 48.149800703560885 2.9116866469355491 2 50.108126606074514 1.3900065292662438 2 53.522491608929407 2.8033787065455757 2 58.652800008971326 3.3119981521991453 2 62.035560878157149 1.395713253128454 2 65.085398680794356 3.2124964027544274 2 69.607667236537395 2.349412910471917 2 71.387071715164808 1.09 2 74.548216059881369 3.3468001419380982 2 76.071816157939566 1.3900000000000003 2 77.361163371523091 3.5103725988233441 2 86.607286745234987 2.6333904789386571 2 89.367519081017932 2.6625558969504466 2 91.496150592086792 1.3900262909231318 2 95.133541858618756 2.9551062046280809 2 98.91 1.09 2 1.09 1.09 2 3.170001696892728 1.09 2 6.8401237163667989 5.6875202678044259 2 12.830955505708245 1.09 2 14.431989545366378 2.5695571428305204 2 26.357025357250826 4.4424172671526128 2 29.540463913254211 2.8857220536206847 2 39.756736128067786 1.09 2 42.107789692787996 4.5807540685776926 2 46.325907087945247 4.1057992957951912 2 55.209490679692536 4.1841382625754022 2 56.972575467978125 1.9227188251433214 2 67.26532548015247 3.1946289530885124 2 69.055222382615781 4.4582541753807492 2 72.392152696402789 3.0244877149242417 2 73.24554062756529 5.0948609116122663 2 75.846917491574359 5.09773820079283 2 86.158460237608878 4.7670538433889593 2 88.330509443668745 4.5801103457781904 2 96.772321308816444 1.5174697547158913 2 98.909999999999997 3.2705684639731625 2 </DataArray>
<DataArray Name="forces" NumberOfComponents="3" format="ascii" type="Float32">0.0 0.0 0.0 0.095438683114198508 0.022092095216460911 0.0 -0.0056532243799439245 -0.017654659585776618 0.0 -0.045361961795933048 0.0055407281365645808 0.0 0.0 0.0 0.0 1.0892830469557097e-07 2.896766319397345e-07 0.0 5.4822251292660382e-08 -2.9642586190964809e-08 0.0 6.4949170972205267e-06 6.7807849666928698e-06 0.0 -2.0758781023238252e-06 -1.5695966713267576e-06 0.0 -9.3316716427376117e-07 4.6909699450064478e-06 0.0 0.0 0.0 0.0 0.0 0.0 0.0 0.0 0.0 0.0 0.0 0.0 0.0 0.0 0.0 0.0 0.0 0.0 0.0 0.0 0.0 0.0 0.0 0.0 0.0 0.0 0.0 0.0 0.0 0.0 0.0 0.0 0.0 0.0 0.0 0.0 0.0 0.0 0.0 0.0 -1.1841235140704733e-06 -1.5964615704381041e-06 0.0 0.0 0.0 0.0 0.0 0.0 0.0 0.0 0.0 0.0 0.0 0.0 0.0 0.0 0.0 0.0 0.0 0.0 0.0 2.7196571777167508e-06 -5.4384748814903543e-07 0.0 -3.5504923560747415e-05 0.0 0.0 -0.095403178190637761 -0.022092095216460911 0.0 0.0056532243799439245 0.017654659585776618 0.0 0.0 0.0 0.0 -1.6375055598823135e-07 -2.600340457487697e-07 0.0 0.0 0.0 0.0 3.0090452665975864e-06 -3.12137327367969e-06 0.0 0.0 0.0 0.0 0.0 0.0 0.0 0.0 0.0 0.0 0.0 0.0 0.0 0.0 0.0 0.0 0.0 0.0 0.0 0.0 0.0 0.0 0.0 0.0 0.0 0.0 0.0 0.0 1.1841235140704733e-06 1.5964615704381041e-06 0.0 0.0 0.0 0.0 0.0 0.0 0.0 -2.7196571777167508e-06 5.4384748814903543e-07 0.0 0.0 0.0 0.0 </DataArray>
<DataArray Name="radii" format="ascii" type="Float32">1.09 1.09 1.09 1.3900000000000003 1.09 1.09 1.3900000000000003 1.09 1.3900000000000003 1.09 1.3900000000000003 1.3900000000000003 1.3900000000000003 1.09 1.09 1.09 1.3900000000000003 1.09 1.09 1.3900000000000003 1.09 1.09 1.09 1.09 1.3900000000000003 1.09 1.09 1.09 1.3900000000000003 1.09 1.09 1.09 1.09 1.09 1.09 1.09 1.09 1.09 1.09 1.09 1.09 1.09 1.09 1.09 1.09 1.09 1.09 1.09 1.09 1.09 1.09 1.09 </DataArray>
</PointData>
<CellData/>
</Piece>
</UnstructuredGrid>
</VTKFile>
