<?xml version="1.0" ?>
<VTKFile byte_order="LittleEndian" type="UnstructuredGrid" version="0.1">
<UnstructuredGrid>
<Piece NumberOfCells="0" NumberOfPoints="77">
<Points>
<DataArray NumberOfComponents="3" format="ascii" type="Float32">12.99886082841995 1.1 2 21.575325117637739 8.1066853929855487 2 21.100739240480753 1 2 21.818953585801165 3.0750759391503948 2 23.093277616969576 1 2 35.401854700832764 1 2 44.547553311414049 1 2 46.591803481134086 1.1 2 50.959031254330604 1 2 52.837620825317686 1.1 2 58.19225973802051 1.1 2 64.787277553578647 1.1 2 66.746465175008652 1 2 81.989625486203437 1.4000000000000004 2 88.025270744773934 6.0483966395706101 2 88.104730206656171 1 2 90.00919904424731 1 2 94.370478565200315 1.1 2 73.267818858941553 16.473150350366332 2 85.194725778596464 18.597267246869574 2 75.168542475804145 1.4000000000000004 2 88.871254072990169 8.5000372226893912 2 75.619455064847429 16.760192381322483 2 77.536878692718645 5.9617162386775142 2 83.806706919243311 7.8900595221376237 2 80.58983078586165 17.591430339468889 2 72.958661808599629 1 2 90.749441695520474 16.736933835240659 2 82.523034695861327 9.9379422979508565 2 79.997816258662496 5.9629987952833554 2 83.996358211857967 1 2 79.757137158888639 19.80329341228018 2 71.607655506702343 3.628203114959708 2 90.436643023370351 12.699341899756828 2 78.957448489768467 12.915656289426394 2 86.25889518346213 15.050952241526758 2 92.254426441360508 14.410767266536251 2 78.910064582015863 3.6367636451852587 2 86.006096267949957 1.4000000000000004 2 82.568914427225963 19.521491292212104 2 74.970025137767138 5.8197225782513335 2 89.437964453612167 11.101033243083538 2 74.256570731211269 14.80295254452054 2 82.723140182664224 12.317453995049441 2 87.033130702189879 17.17514547126278 2 81.35934053784176 3.6695498518549936 2 73.971926262963365 7.7424222380692393 2 80.22333345016132 10.561251322833071 2 88.484179819105179 15.844279521648058 2 88.116841394853225 13.088812310652877 2 76.217862991554767 10.111026591526832 2 84.818160358722636 10.240353426006413 2 79.857171854766847 1 2 85.289672867879887 5.6975319826378703 2 83.163451704314511 16.775601947213978 2 77.718498972940239 1.4000000000000004 2 86.333607826962705 8.1132034456789075 2 77.908424521998953 18.29514976028533 2 82.647427156141717 5.7222217159087281 2 78.724815944688956 15.64387234126259 2 88.79536056326836 18.699852320447931 2 78.653487727446489 8.3524049377743683 2 72.703597778538025 5.6015357714148566 2 76.481598459742202 14.158633474189603 2 83.862073521217567 14.421039360195183 2 89.913514942455549 14.5417739183536 2 76.426712210442091 3.6875950576011367 2 86.814228572975424 3.6938188826171401 2 84.716337442195723 21.312620325093587 2 73.885435059271771 3.5077652100569141 2 81.273137045420555 14.604182386572784 2 84.042087567620854 3.3100613924267259 2 78.014812105541154 10.613761971884729 2 87.257131367603108 10.605122147617868 2 76.13679457316394 8.0296018824024333 2 81.21705559083864 8.0200312819590813 2 85.477859622682061 12.578869958940013 2 </DataArray>
</Points>
<Cells>
<DataArray Name="connectivity" format="ascii" type="Int32">0</DataArray>
<DataArray Name="offsets" format="ascii" type="Int32">0</DataArray>
<DataArray Name="types" format="ascii" type="UInt8">1</DataArray>
</Cells>
<PointData>
<DataArray Name="Points" NumberOfComponents="3" format="ascii" type="Float32">12.99886082841995 1.1 2 21.575325117637739 8.1066853929855487 2 21.100739240480753 1 2 21.818953585801165 3.0750759391503948 2 23.093277616969576 1 2 35.401854700832764 1 2 44.547553311414049 1 2 46.591803481134086 1.1 2 50.959031254330604 1 2 52.837620825317686 1.1 2 58.19225973802051 1.1 2 64.787277553578647 1.1 2 66.746465175008652 1 2 81.989625486203437 1.4000000000000004 2 88.025270744773934 6.0483966395706101 2 88.104730206656171 1 2 90.00919904424731 1 2 94.370478565200315 1.1 2 73.267818858941553 16.473150350366332 2 85.194725778596464 18.597267246869574 2 75.168542475804145 1.4000000000000004 2 88.871254072990169 8.5000372226893912 2 75.619455064847429 16.760192381322483 2 77.536878692718645 5.9617162386775142 2 83.806706919243311 7.8900595221376237 2 80.58983078586165 17.591430339468889 2 72.958661808599629 1 2 90.749441695520474 16.736933835240659 2 82.523034695861327 9.9379422979508565 2 79.997816258662496 5.9629987952833554 2 83.996358211857967 1 2 79.757137158888639 19.80329341228018 2 71.607655506702343 3.628203114959708 2 90.436643023370351 12.699341899756828 2 78.957448489768467 12.915656289426394 2 86.25889518346213 15.050952241526758 2 92.254426441360508 14.410767266536251 2 78.910064582015863 3.6367636451852587 2 86.006096267949957 1.4000000000000004 2 82.568914427225963 19.521491292212104 2 74.970025137767138 5.8197225782513335 2 89.437964453612167 11.101033243083538 2 74.256570731211269 14.80295254452054 2 82.723140182664224 12.317453995049441 2 87.033130702189879 17.17514547126278 2 81.35934053784176 3.6695498518549936 2 73.971926262963365 7.7424222380692393 2 80.22333345016132 10.561251322833071 2 88.484179819105179 15.844279521648058 2 88.116841394853225 13.088812310652877 2 76.217862991554767 10.111026591526832 2 84.818160358722636 10.240353426006413 2 79.857171854766847 1 2 85.289672867879887 5.6975319826378703 2 83.163451704314511 16.775601947213978 2 77.718498972940239 1.4000000000000004 2 86.333607826962705 8.1132034456789075 2 77.908424521998953 18.29514976028533 2 82.647427156141717 5.7222217159087281 2 78.724815944688956 15.64387234126259 2 88.79536056326836 18.699852320447931 2 78.653487727446489 8.3524049377743683 2 72.703597778538025 5.6015357714148566 2 76.481598459742202 14.158633474189603 2 83.862073521217567 14.421039360195183 2 89.913514942455549 14.5417739183536 2 76.426712210442091 3.6875950576011367 2 86.814228572975424 3.6938188826171401 2 84.716337442195723 21.312620325093587 2 73.885435059271771 3.5077652100569141 2 81.273137045420555 14.604182386572784 2 84.042087567620854 3.3100613924267259 2 78.014812105541154 10.613761971884729 2 87.257131367603108 10.605122147617868 2 76.13679457316394 8.0296018824024333 2 81.21705559083864 8.0200312819590813 2 85.477859622682061 12.578869958940013 2 </DataArray>
<DataArray Name="forces" NumberOfComponents="3" format="ascii" type="Float32">0.0045100153433642945 -0.067573264767586655 0.0 -0.0014603224601893515 0.001989154965658321 0.0 -0.0065863774604050275 -0.0042012778795116569 0.0 -0.0018920577627555626 -0.0019924354112097007 0.0 -0.0042242481026917387 -0.025766561580861241 0.0 0.012230692345128191 -0.074743353357000927 0.0 -0.028151128272324494 -0.0035592886741323674 0.0 -0.048564947160785563 -0.11282743661290495 0.0 -0.032281820037635356 -0.039195683596273755 0.0 -0.020946321219414976 -0.029889850250549611 0.0 0.0024688581611585492 -0.11118908207772563 0.0 -0.0042559940374153338 -0.22660759894119795 0.0 -0.015831915415127785 -0.21159859318661667 0.0 -0.0013676325855995742 -0.32262359534649654 0.0 0.021863813677902508 0.040207089609912303 0.0 0.0045367529517855443 -0.415972921138343 0.0 -0.0029846592079741316 -0.11674505778160832 0.0 0.019624075458536727 -0.097596487781921093 0.0 -0.024304785347765562 0.069746699680484636 0.0 0.016167666118216215 0.047308453085541657 0.0 -0.017063410792911543 -0.42814303005948195 0.0 0.024538475379963343 0.070615643870313771 0.0 -0.01554782666873215 0.048387035031078815 0.0 -0.0074341469428138712 0.018454771847356138 0.0 0.0096094090394217707 0.034733457183135322 0.0 -0.0098276963167142628 0.039634969966733241 0.0 -0.020767085803193336 -0.046196221641237725 0.0 0.020811783211108797 0.052439704089978181 0.0 0.0065176054391698768 0.037348553400468387 0.0 0.0052187571275435496 0.015929541787712498 0.0 0.0020260334178291992 -0.23124537291157637 0.0 -0.001340522987150046 0.044288134727445055 0.0 -0.019790608729331249 0.0085020889913691375 0.0 0.019088179434717033 0.044336955894828667 0.0 -0.027613580431518549 0.037206035075851497 0.0 -0.00069293466571641871 0.061558458649194292 0.0 0.020996054870279647 0.046878899454630356 0.0 -0.0050290503740287873 0.014510776192402911 0.0 0.0028891115671483628 -0.27942348864124184 0.0 0.0073496977452260533 0.029167392769646468 0.0 -0.0098519457350753348 0.021411927898208172 0.0 0.007751256226737932 0.046213761887561322 0.0 -0.033543051466584331 0.058398553737945155 0.0 -0.022272637564040534 0.051769722183098429 0.0 0.032491044921861591 0.061283537508666074 0.0 0.0011574986292096912 0.015647448537924748 0.0 -0.0057720723716470773 0.032357472304396701 0.0 -0.0042360599212651617 0.040289035454300647 0.0 0.0097315636742582243 0.037077388114700557 0.0 0.01167101239668079 0.057950480123566073 0.0 -0.0078472648053284771 0.035303002463873155 0.0 0.0089061835948457124 0.039899615139469213 0.0 -0.0058056047239277708 -0.084350850228656168 0.0 0.016732860335672686 0.024211733976194777 0.0 0.0012042034865693829 0.061182294695440398 0.0 -0.010780707120115085 -0.35074038016354681 0.0 0.021588796427867499 0.039773345939922711 0.0 -0.0087526248931783339 0.048648104478152925 0.0 0.0086354068171526112 0.019792587203215313 0.0 -0.022361257038628665 0.042030226946109986 0.0 0.031466895903518727 0.068953143588643698 0.0 0.0031552325418728461 0.024426937099047537 0.0 -0.017014530473166298 0.014130522232117547 0.0 -0.031528018370422677 0.040646331751611031 0.0 -0.0058513791772180704 0.051216115408804011 0.0 0.021728603548586224 0.049336057681375257 0.0 -0.011401078403538822 0.009607707853816129 0.0 0.010169955223322161 0.024636464707332002 0.0 -0.0042018811963432691 0.045443941267930846 0.0 -0.010772522962014308 0.015770558414445184 0.0 -0.010505243521128693 0.05969744057943728 0.0 0.013482579079199674 0.010669507150909906 0.0 -0.0040742658143826209 0.021883046289733615 0.0 0.005080746607380681 0.053752568820969585 0.0 -0.0021354218353379084 0.027294070918704946 0.0 0.011124340102131369 0.026987926791621715 0.0 0.0052905362581548189 0.0558134202485027 0.0 </DataArray>
<DataArray Name="radii" format="ascii" type="Float32">1.1 1.1 1 1.2000000000000002 1 1 1 1.1 1 1.1 1.1 1.1 1 1.4000000000000004 1.4000000000000004 1 1 1.1 1 1.4000000000000004 1.4000000000000004 1.4000000000000004 1.4000000000000004 1.3000000000000003 1.4000000000000004 1.4000000000000004 1 1.4000000000000004 1.3000000000000003 1.4000000000000004 1 1 1.4000000000000004 1 1.4000000000000004 1.4000000000000004 1.4000000000000004 1.4000000000000004 1.4000000000000004 1.4000000000000004 1.4000000000000004 1 1 1.4000000000000004 1 1.4000000000000004 1 1.4000000000000004 1 1.4000000000000004 1 1.3000000000000003 1 1.4000000000000004 1.4000000000000004 1.4000000000000004 1.4000000000000004 1.4000000000000004 1.4000000000000004 1.4000000000000004 1.4000000000000004 1.4000000000000004 1 1.4000000000000004 1.2000000000000002 1 1.4000000000000004 1.4000000000000004 1.4000000000000004 1.4000000000000004 1.4000000000000004 1.4000000000000004 1 1.4000000000000004 1.3000000000000003 1.3000000000000003 1.3000000000000003 </DataArray>
</PointData>
<CellData/>
</Piece>
</UnstructuredGrid>
</VTKFile>
